% Model:              c4扩张收缩.mph
% Version:            COMSOL 5.4.0.225
% Date:               Apr 25 2021, 16:33
% Dimension:          2
% Nodes:              8
% Expressions:        51
% Description:        电场，z 分量
% Length unit:        m
% X                       Y                        ewfd.Ez (V/m) @ lambda=5, k1=-0.5, k2=0.5         ewfd.Ez (V/m) @ lambda=5, k1=-0.48, k2=0.5        ewfd.Ez (V/m) @ lambda=5, k1=-0.46, k2=0.5        ewfd.Ez (V/m) @ lambda=5, k1=-0.44, k2=0.5        ewfd.Ez (V/m) @ lambda=5, k1=-0.42, k2=0.5        ewfd.Ez (V/m) @ lambda=5, k1=-0.4, k2=0.5         ewfd.Ez (V/m) @ lambda=5, k1=-0.38, k2=0.5        ewfd.Ez (V/m) @ lambda=5, k1=-0.36, k2=0.5        ewfd.Ez (V/m) @ lambda=5, k1=-0.34, k2=0.5        ewfd.Ez (V/m) @ lambda=5, k1=-0.32, k2=0.5        ewfd.Ez (V/m) @ lambda=5, k1=-0.3, k2=0.5         ewfd.Ez (V/m) @ lambda=5, k1=-0.28, k2=0.5        ewfd.Ez (V/m) @ lambda=5, k1=-0.26, k2=0.5        ewfd.Ez (V/m) @ lambda=5, k1=-0.24, k2=0.5        ewfd.Ez (V/m) @ lambda=5, k1=-0.22, k2=0.5        ewfd.Ez (V/m) @ lambda=5, k1=-0.2, k2=0.5         ewfd.Ez (V/m) @ lambda=5, k1=-0.18, k2=0.5        ewfd.Ez (V/m) @ lambda=5, k1=-0.16, k2=0.5        ewfd.Ez (V/m) @ lambda=5, k1=-0.14, k2=0.5        ewfd.Ez (V/m) @ lambda=5, k1=-0.12, k2=0.5        ewfd.Ez (V/m) @ lambda=5, k1=-0.1, k2=0.5         ewfd.Ez (V/m) @ lambda=5, k1=-0.08, k2=0.5        ewfd.Ez (V/m) @ lambda=5, k1=-0.06, k2=0.5        ewfd.Ez (V/m) @ lambda=5, k1=-0.04, k2=0.5        ewfd.Ez (V/m) @ lambda=5, k1=-0.02, k2=0.5        ewfd.Ez (V/m) @ lambda=5, k1=0, k2=0.5            ewfd.Ez (V/m) @ lambda=5, k1=0.02, k2=0.5         ewfd.Ez (V/m) @ lambda=5, k1=0.04, k2=0.5         ewfd.Ez (V/m) @ lambda=5, k1=0.06, k2=0.5         ewfd.Ez (V/m) @ lambda=5, k1=0.08, k2=0.5         ewfd.Ez (V/m) @ lambda=5, k1=0.1, k2=0.5          ewfd.Ez (V/m) @ lambda=5, k1=0.12, k2=0.5         ewfd.Ez (V/m) @ lambda=5, k1=0.14, k2=0.5         ewfd.Ez (V/m) @ lambda=5, k1=0.16, k2=0.5         ewfd.Ez (V/m) @ lambda=5, k1=0.18, k2=0.5         ewfd.Ez (V/m) @ lambda=5, k1=0.2, k2=0.5          ewfd.Ez (V/m) @ lambda=5, k1=0.22, k2=0.5         ewfd.Ez (V/m) @ lambda=5, k1=0.24, k2=0.5         ewfd.Ez (V/m) @ lambda=5, k1=0.26, k2=0.5         ewfd.Ez (V/m) @ lambda=5, k1=0.28, k2=0.5         ewfd.Ez (V/m) @ lambda=5, k1=0.3, k2=0.5          ewfd.Ez (V/m) @ lambda=5, k1=0.32, k2=0.5         ewfd.Ez (V/m) @ lambda=5, k1=0.34, k2=0.5         ewfd.Ez (V/m) @ lambda=5, k1=0.36, k2=0.5         ewfd.Ez (V/m) @ lambda=5, k1=0.38, k2=0.5         ewfd.Ez (V/m) @ lambda=5, k1=0.4, k2=0.5          ewfd.Ez (V/m) @ lambda=5, k1=0.42, k2=0.5         ewfd.Ez (V/m) @ lambda=5, k1=0.44, k2=0.5         ewfd.Ez (V/m) @ lambda=5, k1=0.46, k2=0.5         ewfd.Ez (V/m) @ lambda=5, k1=0.48, k2=0.5         ewfd.Ez (V/m) @ lambda=5, k1=0.5, k2=0.5
-0.007500000000000001     -0.005000000000000001    0.989304587501517                                 0.9819134162875975+0.053914512766727554i          0.962763885703419+0.10330695050511685i            0.9380966275332203+0.14611993171599108i           0.913019270935194+0.18270007072640582i            0.8900921454673422+0.21441332681386494i           0.8700182229336242+0.24264795180053098i           0.85258507669195+0.26845764342981565i             0.8372477448079112+0.292528278164213i             0.8234031208781527+0.31523895385391904i           0.810499049078052+0.3367278141761001i             0.7980701031773902+0.3569393066375356i            0.785745098134115+0.3756509144755547i             0.7732461022226242+0.39248184600032404i           0.76038714735901+0.4068855373443211i              0.7470758646741621+0.41812606069911407i           0.7333189807171132+0.4252368706266716i            0.7192310062270199+0.42695970513463255i           0.7050444095153485+0.42166430476719885i           0.6911236946982598+0.4072618985190854i            0.6779961102719865+0.38115483167154984i           0.6663714513985652+0.34031867777416974i           0.6570215307358389+0.28173938578440233i           0.6504912860953547+0.2036065766876833i            0.646837326374873+0.10743168822098291i            0.6457003095619807                                0.6468373263746353-0.1074316882211356i            0.6504912860947089-0.20360657668797136i           0.6570215307344398-0.2817393857849744i            0.6663714513965768-0.3403186777745099i            0.6779961102688533-0.38115483167170844i           0.6911236946941604-0.40726189851891936i           0.7050444095110966-0.42166430476699934i           0.719231006223691-0.42695970513452053i            0.7333189807152048-0.4252368706267686i            0.7470758646734073-0.4181260606995462i            0.760387147358731-0.40688553734474997i            0.7732461022230104-0.39248184600061453i           0.7857450981335593-0.37565091447597515i           0.7980701031765819-0.35693930663721946i           0.8104990490761539-0.3367278141752731i            0.8234031208749053-0.3152389538535274i            0.8372477448032097-0.29252827816475846i           0.8525850766856842-0.26845764343248946i           0.870018222923051-0.24264795180538212i            0.8900921454539292-0.21441332682145464i           0.9130192709200459-0.1827000707381891i            0.9380966275147165-0.1461199317369697i            0.9627638856871739-0.10330695053337291i           0.9819134162755219-0.05391451280474482i           0.9893045875015187
-0.0025000000000000005    -0.005000000000000001    -1.1524837020861585                               -1.1429390247515478+0.06964560144323627i          -1.1183376804534024+0.13170906283763695i          -1.0870932259439008+0.18254856658304405i          -1.0562960352941009+0.22241181670106538i          -1.0297817877679423+0.2532694141222931i           -1.0089551578466736+0.27723550144163217i          -0.9939826306167339+0.2959916691294183i           -0.9845442500409401+0.3107245751935353i           -0.9801934885692684+0.3222177585382675i           -0.9805032238288889+0.330956172648246i            -0.9851145355087298+0.33720643513671i             -0.9937459681557443+0.3410701886094962i           -1.0061882778915563+0.34251575523804856i          -1.022293975750043+0.3413931541172461i            -1.0419629598359224+0.3374357302037557i           -1.0651194558738462+0.33024978220771656i          -1.091667851100907+0.31929215073586725i           -1.1214082509436967+0.3038367664100872i           -1.153913645346381+0.2829451673180065i            -1.188446728414305+0.2554987119364298i            -1.2238977561170497+0.22036220512601684i          -1.2583603456581167+0.176662398207829i            -1.288488307147822+0.1242406797357137i            -1.3096230006418854+0.06433160813997084i          -1.317301464818012                                -1.3096230006420397-0.06433160813951455i          -1.2884883071477886-0.12424067973440175i          -1.2583603456561936-0.17666239820599264i          -1.2238977561132613-0.22036220512455332i          -1.1884467284077027-0.2554987119360896i           -1.153913645338422-0.2829451673190996i            -1.1214082509361964-0.30383676641278257i          -1.0916678510955538-0.31929215073919426i          -1.0651194558721466-0.33024978221011925i          -1.0419629598369227-0.33743573020611384i          -1.0222939757514153-0.3413931541175971i           -1.006188277892715-0.3425157552371431i            -0.9937459681551347-0.34107018860888205i          -0.985114535510197-0.33720643513481763i           -0.9805032238313675-0.33095617264613936i          -0.9801934885736281-0.32221775853529144i          -0.9845442500470704-0.3107245751883229i           -0.9939826306266752-0.29599166912186775i          -1.0089551578592697-0.27723550143250925i          -1.0297817877864148-0.25326941411090753i          -1.0562960353170836-0.22241181669468238i          -1.0870932259678696-0.18254856657969587i          -1.1183376804800909-0.13170906285455997i          -1.1429390247672504-0.0696456014794872i           -1.1524837020861565
0.0025000000000000005     -0.005000000000000001    -1.1521368748094531                               -1.1426762180607377-0.06835444532684276i          -1.1182447212095463-0.12972814534892324i          -1.0870963072982152-0.18072094855789378i          -1.0562127000865462-0.22148549706936968i          -1.029403234021496-0.25377456956561467i           -1.0080965325736087-0.2795048398254928i           -0.9924999348983238-0.30022223970764267i          -0.9823339385971122-0.31703376161529223i          -0.9771864259342309-0.3306826501240299i           -0.976658469943614-0.34163826604169395i           -0.9804149527821241-0.35016577324912734i          -0.98819621287575-0.3563720679346084i             -0.999815332658286-0.3602316060981702i            -1.0151504057241494-0.3615956981193481i           -1.0341332430293697-0.3601870400906678i           -1.0567298384903256-0.35557947483148133i          -1.082899919135017-0.3471623099744989i            -1.1125154936369626-0.3340910986509869i           -1.1452394601588967-0.31523405294893786i          -1.1804423626680438-0.28912481121564315i          -1.2171231660442154-0.253939289984008i            -1.253398099343633-0.2076679003429845i            -1.2856841706462605-0.14887312921396262i          -1.3086932347640987-0.07821387688325956i          -1.3171329672534042                               -1.3086932347640896+0.07821387688354914i          -1.285684170645765+0.14887312921635573i           -1.2533980993409692+0.2076679003458711i           -1.2171231660398025+0.25393928998692933i          -1.1804423626613059+0.2891248112169014i           -1.1452394601513627+0.31523405294856044i          -1.1125154936309376+0.3340910986487361i           -1.0828999191314206+0.34716230997183917i          -1.0567298384893604+0.35557947483007557i          -1.0341332430303458+0.36018704008926794i          -1.0151504057237926+0.3615956981188012i           -0.999815332657015+0.36023160609780475i           -0.9881962128749373+0.3563720679342571i           -0.9804149527813513+0.3501657732496159i           -0.9766584699438413+0.3416382660424481i           -0.977186425935263+0.3306826501252503i            -0.9823339385984702+0.31703376161727714i          -0.9924999349012209+0.30022223971134426i          -1.0080965325776439+0.27950483982711666i          -1.0294032340239716+0.25377456956636574i          -1.0562127000879045+0.22148549706237236i          -1.0870963073004263+0.18072094853343154i          -1.1182447212070679+0.12972814530221224i          -1.1426762180562542+0.06835444526190396i          -1.1521368748094547
0.007500000000000001      -0.005000000000000001    0.9888542859650371                                0.9814037133996191-0.05504784471879436i           0.9621365751180311-0.10505569518407407i           0.9374133132340684-0.1477530676178035i            0.9124283842093555-0.18356283414601604i           0.889771927617678-0.21403875630563476i            0.8701407821098617-0.24074705425583426i           0.8533031161779433-0.2648723664487142i            0.8386930489581699-0.28718733178499994i           0.8256887564507869-0.3081262714406593i            0.8137214229115306-0.3278625576463414i            0.8023093434697839-0.34636423326349947i           0.791063122405999-0.3634264774228989i             0.7796818935265011-0.37868441141207504i           0.7679485730657366-0.3916090232079039i            0.7557270310230088-0.4014871007054041i            0.7429617870473434-0.4073843297383942i            0.7296795683781152-0.40809000059572365i           0.7159919279935352-0.40204466219475005i           0.7021035228993223-0.3872667151384191i            0.6883440471524168-0.36133147158322654i           0.6752223113307906-0.32150194135218385i           0.6634398249677353-0.26517541643301956i           0.653865419401486-0.1909590821811405i             0.647494845109171-0.1004899331241037i             0.645240774110192                                 0.6474948451091451+0.10048993312403291i           0.653865419402043+0.1909590821826168i             0.6634398249683165+0.26517541643460757i           0.6752223113317564+0.32150194135471033i           0.6883440471533844+0.3613314715862903i            0.7021035229007383+0.3872667151416979i            0.7159919279953625+0.4020446621978119i            0.7296795683797671+0.4080900005987427i            0.7429617870490005+0.40738432974166366i           0.7557270310244661+0.4014871007083005i            0.7679485730664621+0.39160902321050384i           0.7796818935270341+0.3786844114147872i            0.791063122405621+0.36342647742477063i            0.8023093434714212+0.3463642332661821i            0.8137214229143178+0.327862557650174i             0.8256887564544322+0.308126271445936i             0.8386930489632607+0.2871873317931262i            0.8533031161849183+0.2648723664605917i            0.8701407821179239+0.2407470542737405i            0.8897719276260271+0.21403875633261757i           0.912428384216523+0.1835628341843045i             0.9374133132441024+0.14775306767371785i           0.9621365751229266+0.10505569525649154i           0.9814037134031716+0.055047844803800344i          0.9888542859650357
-0.007500000000000001     0.005000000000000001     0.9882990198540355                                0.9809227077373384+0.05375391610748033i           0.961812796129026+0.10300259792106788i            0.9371993271196051+0.1456969658328511i            0.9121804684037149+0.1821834304770378i            0.8893107149054896+0.2138238557458466i            0.8692900570450687+0.24200190568212288i           0.8519045982121215+0.26776746413449765i           0.8366084983193018+0.2918035296324352i            0.8227978612738679+0.31448708069631837i           0.8099195586108252+0.3359546902840548i            0.7975068398342291+0.35614963008182376i           0.7851867204088934+0.3748485293743367i            0.7726789279293752+0.3916701007720792i            0.7597947381280161+0.4060678657327357i            0.7464393613689287+0.4173071532700303i            0.7326199848995467+0.4244251502979368i            0.718461330505319+0.42617215938983116i            0.7042293962273037+0.4209335277918127i            0.6903546597870109+0.4066378491497795i            0.6774217491366045+0.3806832911763483i            0.6660991341023441+0.3400041321518551i            0.6570402715369429+0.2815464713433987i            0.6507165513770965+0.20349647446495786i           0.6471773649258158+0.10738123986824631i           0.6460764943645338                                0.6471773649255896-0.10738123986847187i           0.6507165513765998-0.20349647446513064i           0.6570402715364347-0.2815464713437566i            0.6660991341019805-0.3400041321522916i            0.6774217491362978-0.38068329117757654i           0.6903546597862994-0.40663784915157225i           0.7042293962260003-0.4209335277943673i            0.7184613305040083-0.4261721593924331i            0.7326199848983533-0.42442515029978073i           0.7464393613678555-0.417307153272128i             0.7597947381278526-0.40606786573418346i           0.7726789279301634-0.39167010077298303i           0.7851867204097803-0.37484852937497637i           0.7975068398356457-0.35614963008180905i           0.8099195586121599-0.3359546902836258i            0.8227978612756212-0.3144870806963702i            0.8366084983215493-0.2918035296320252i            0.8519045982154554-0.2677674641334586i            0.8692900570497248-0.24200190567955032i           0.889310714912668-0.213823855740774i              0.9121804684128113-0.18218343046948493i           0.9371993271277709-0.14569696582404132i           0.9618127961369092-0.10300259791594722i           0.9809227077402423-0.05375391610763097i           0.988299019854036
-0.0025000000000000005    0.005000000000000001     -1.152425144651357                                -1.14287401434451+0.06961275335977345i            -1.1182530025573936+0.13164133381690413i          -1.0869749439563647+0.18244277689939334i          -1.056129357897498+0.22226454942634508i           -1.0295509435728225+0.25307743084832635i          -1.0086430816950385+0.27699573639482106i          -0.993570418986403+0.2957010093108443i            -0.984010377265768+0.3103795430598661i            -0.9795127440508903+0.32181412436746143i          -0.979645288091256+0.33048847513136176i           -0.9840420828405831+0.3366673639857954i           -0.9924121979178082+0.34044977275934046i          -1.00453394009475+0.3418003206904654i             -1.020244588220341+0.3405641406416553i            -1.0394289154518246+0.3364689185433535i           -1.0620073165666222+0.32911691451057445i          -1.0879239067354285+0.31797055591415624i          -1.117130039950648+0.30233802314220115i           -1.1495188674739412+0.28136562624450157i          -1.1846655227329144+0.2540350876424057i           -1.2213160869453294+0.2192034159414616i           -1.2570124573269439+0.17586644451384936i          -1.2880333357983738+0.12376257143137481i          -1.3096644896390448+0.06411003856610263i          -1.317498612248517                                -1.3096644896388514-0.06411003856638513i          -1.2880333357985836-0.12376257143389754i          -1.2570124573291537-0.17586644451701133i          -1.2213160869491586-0.21920341594547227i          -1.1846655227395595-0.25403508764567617i          -1.1495188674821415-0.2813656262464884i           -1.1171300399580382-0.3023380231423925i           -1.0879239067407653-0.3179705559134554i           -1.062007316568367-0.3291169145110867i            -1.0394289154519556-0.33646891854351996i          -1.0202445882207174-0.34056414064371443i          -1.0045339400956492-0.341800320693014i            -0.9924121979176826-0.3404497727600817i           -0.9840420828409848-0.3366673639885424i           -0.9796452880911654-0.3304884751342096i           -0.9795127440502294-0.32181412437076773i          -0.9840103772653003-0.31037954306425436i          -0.9935704189826242-0.2957010093171888i           -1.0086430816906313-0.2769957364035807i           -1.0295509435690742-0.25307743085803175i          -1.0561293578992887-0.2222645494372593i           -1.0869749439606895-0.1824427769156486i           -1.1182530025619768-0.1316413338301493i           -1.1428740143537934-0.06961275337775577i          -1.1524251446513554
0.0025000000000000005     0.005000000000000001     -1.1527772725808936                               -1.1433055772059337-0.06828859211997293i          -1.1188424716980223-0.12959760544403803i          -1.0876448582312177-0.1805273967877661i           -1.056696535202018-0.22123056687332432i           -1.0298071917640943-0.25345973766762625i          -1.008404357376518-0.2791315622936813i            -0.9926931837745802-0.29979214711852126i          -0.9823909945343987-0.3165488516268434i           -0.9770813785425376-0.3301454914557655i           -0.9763596728708235-0.34105226093168867i          -0.9798830932050286-0.3495355540790681i           -0.9873817693516932-0.35570415296397584i          -0.9986554773890652-0.35953553212321065i          -1.0135660688724601-0.36088600917243596i          -1.0320291510319974-0.3594867331771936i           -1.0540062161612977-0.3549255402687112i           -1.0794980229451598-0.34661258378393156i          -1.1085347606398392-0.33372481379738106i          -1.141116045128199-0.315123589475153i             -1.1769437749685727-0.28926601824182224i          -1.2148699921387376-0.25421958591416366i          -1.2524326923417692-0.20795046186971264i          -1.2856528192338974-0.14907901853346056i          -1.309181703901743-0.07831833171772583i           -1.3177844692154546                               -1.3091817039014035+0.07831833171776383i          -1.285652819234026+0.14907901853085986i           -1.252432692344098+0.20795046186688276i           -1.2148699921427748+0.2542195859108998i           -1.17694377497503+0.2892660182402987i             -1.1411160451357198+0.3151235894753457i           -1.1085347606460465+0.33372481379972313i          -1.0794980229491962+0.3466125837860883i           -1.0540062161624972+0.3549255402688046i           -1.0320291510315367+0.3594867331766719i           -1.0135660688727417+0.3608860091709225i           -0.9986554773891344+0.3595355321225666i           -0.987381769352116+0.3557041529647143i            -0.9798830932033457+0.34953555407966846i          -0.9763596728674044+0.3410522609334241i           -0.9770813785374178+0.3301454914590109i           -0.9823909945272793+0.3165488516324564i           -0.9926931837653685+0.29979214712447266i          -1.0084043573653947+0.27913156230384134i          -1.0298071917546743+0.2534597376798226i           -1.056696535196242+0.22123056688920148i           -1.0876448582245009+0.18052739681730914i          -1.1188424716934176+0.12959760547877297i          -1.1433055772067344+0.06828859216585474i          -1.1527772725808911
0.007500000000000001      0.005000000000000001     0.986827125467704                                 0.9793993754263807-0.05497399237783532i           0.960192642106049-0.10491050988324219i            0.9355504023567411-0.14754038773767678i           0.9106524917930601-0.1832866602487873i            0.8880806915481081-0.21370274262385963i           0.8685282207250535-0.24035442458547324i           0.8517620428546029-0.26442594967818556i           0.8372159773510967-0.2866895788422059i            0.8242680422433092-0.3075792176849224i            0.8123490505034682-0.32726772758692846i           0.800976541337562-0.34572249122009635i            0.7897598881275529-0.36273783446172597i           0.7783965011002127-0.37794782653993203i           0.7666672484864901-0.39082232651675386i           0.7544343592803041-0.4006474206847557i            0.7416434073376272-0.4064900552803881i            0.7283307769516887-0.4071466233116293i            0.7146374326624382-0.4010777829529948i            0.7008232923495108-0.3863385785588126i            0.6872620012151839-0.36053285324799816i           0.6744208065131727-0.3208968556045942i            0.6628992499277646-0.2647643225707012i            0.6535070594578706-0.1907090251129429i            0.6472370940295027-0.10037190340944088i           0.6450146497359079                                0.6472370940293793+0.10037190340921819i           0.6535070594578045+0.1907090251129891i            0.6628992499281573+0.2647643225707489i            0.6744208065140919+0.32089685560513886i           0.6872620012167979+0.3605328532482952i            0.7008232923516932+0.3863385785592101i            0.7146374326648649+0.401077782953076i             0.7283307769538708+0.40714662331195584i           0.7416434073389103+0.4064900552811213i            0.7544343592807639+0.4006474206859237i            0.7666672484864797+0.3908223265186894i            0.7783965010993701+0.3779478265420807i            0.7897598881271223+0.36273783446322405i           0.8009765413360473+0.3457224912229526i            0.8123490505017911+0.32726772759055517i           0.8242680422404075+0.3075792176904377i            0.837215977347598+0.2866895788494047i             0.851762042850702+0.26442594968725097i            0.8685282207198668+0.24035442459659329i           0.8880806915412914+0.2137027426360046i            0.9106524917825449+0.18328666026196244i           0.9355504023473515+0.1475403877491626i            0.9601926421008127+0.104910509887736i             0.9793993754241836+0.05497399237458299i           0.9868271254677069
