% Model:              c4扩张收缩.mph
% Version:            COMSOL 5.4.0.225
% Date:               Apr 25 2021, 15:39
% Dimension:          2
% Nodes:              8
% Expressions:        441
% Description:        电场，z 分量
% Length unit:        m
% X                       Y                        ewfd.Ez (V/m) @ lambda=1, k1=-0.5, k2=-0.5        ewfd.Ez (V/m) @ lambda=1, k1=-0.5, k2=-0.45       ewfd.Ez (V/m) @ lambda=1, k1=-0.5, k2=-0.4        ewfd.Ez (V/m) @ lambda=1, k1=-0.5, k2=-0.35       ewfd.Ez (V/m) @ lambda=1, k1=-0.5, k2=-0.3        ewfd.Ez (V/m) @ lambda=1, k1=-0.5, k2=-0.25       ewfd.Ez (V/m) @ lambda=1, k1=-0.5, k2=-0.2        ewfd.Ez (V/m) @ lambda=1, k1=-0.5, k2=-0.15       ewfd.Ez (V/m) @ lambda=1, k1=-0.5, k2=-0.1        ewfd.Ez (V/m) @ lambda=1, k1=-0.5, k2=-0.05       ewfd.Ez (V/m) @ lambda=1, k1=-0.5, k2=0           ewfd.Ez (V/m) @ lambda=1, k1=-0.5, k2=0.05        ewfd.Ez (V/m) @ lambda=1, k1=-0.5, k2=0.1         ewfd.Ez (V/m) @ lambda=1, k1=-0.5, k2=0.15        ewfd.Ez (V/m) @ lambda=1, k1=-0.5, k2=0.2         ewfd.Ez (V/m) @ lambda=1, k1=-0.5, k2=0.25        ewfd.Ez (V/m) @ lambda=1, k1=-0.5, k2=0.3         ewfd.Ez (V/m) @ lambda=1, k1=-0.5, k2=0.35        ewfd.Ez (V/m) @ lambda=1, k1=-0.5, k2=0.4         ewfd.Ez (V/m) @ lambda=1, k1=-0.5, k2=0.45        ewfd.Ez (V/m) @ lambda=1, k1=-0.5, k2=0.5         ewfd.Ez (V/m) @ lambda=1, k1=-0.45, k2=-0.5       ewfd.Ez (V/m) @ lambda=1, k1=-0.45, k2=-0.45      ewfd.Ez (V/m) @ lambda=1, k1=-0.45, k2=-0.4       ewfd.Ez (V/m) @ lambda=1, k1=-0.45, k2=-0.35      ewfd.Ez (V/m) @ lambda=1, k1=-0.45, k2=-0.3       ewfd.Ez (V/m) @ lambda=1, k1=-0.45, k2=-0.25      ewfd.Ez (V/m) @ lambda=1, k1=-0.45, k2=-0.2       ewfd.Ez (V/m) @ lambda=1, k1=-0.45, k2=-0.15      ewfd.Ez (V/m) @ lambda=1, k1=-0.45, k2=-0.1       ewfd.Ez (V/m) @ lambda=1, k1=-0.45, k2=-0.05      ewfd.Ez (V/m) @ lambda=1, k1=-0.45, k2=0          ewfd.Ez (V/m) @ lambda=1, k1=-0.45, k2=0.05       ewfd.Ez (V/m) @ lambda=1, k1=-0.45, k2=0.1        ewfd.Ez (V/m) @ lambda=1, k1=-0.45, k2=0.15       ewfd.Ez (V/m) @ lambda=1, k1=-0.45, k2=0.2        ewfd.Ez (V/m) @ lambda=1, k1=-0.45, k2=0.25       ewfd.Ez (V/m) @ lambda=1, k1=-0.45, k2=0.3        ewfd.Ez (V/m) @ lambda=1, k1=-0.45, k2=0.35       ewfd.Ez (V/m) @ lambda=1, k1=-0.45, k2=0.4        ewfd.Ez (V/m) @ lambda=1, k1=-0.45, k2=0.45       ewfd.Ez (V/m) @ lambda=1, k1=-0.45, k2=0.5        ewfd.Ez (V/m) @ lambda=1, k1=-0.4, k2=-0.5        ewfd.Ez (V/m) @ lambda=1, k1=-0.4, k2=-0.45       ewfd.Ez (V/m) @ lambda=1, k1=-0.4, k2=-0.4        ewfd.Ez (V/m) @ lambda=1, k1=-0.4, k2=-0.35       ewfd.Ez (V/m) @ lambda=1, k1=-0.4, k2=-0.3        ewfd.Ez (V/m) @ lambda=1, k1=-0.4, k2=-0.25       ewfd.Ez (V/m) @ lambda=1, k1=-0.4, k2=-0.2        ewfd.Ez (V/m) @ lambda=1, k1=-0.4, k2=-0.15       ewfd.Ez (V/m) @ lambda=1, k1=-0.4, k2=-0.1        ewfd.Ez (V/m) @ lambda=1, k1=-0.4, k2=-0.05       ewfd.Ez (V/m) @ lambda=1, k1=-0.4, k2=0           ewfd.Ez (V/m) @ lambda=1, k1=-0.4, k2=0.05        ewfd.Ez (V/m) @ lambda=1, k1=-0.4, k2=0.1         ewfd.Ez (V/m) @ lambda=1, k1=-0.4, k2=0.15        ewfd.Ez (V/m) @ lambda=1, k1=-0.4, k2=0.2         ewfd.Ez (V/m) @ lambda=1, k1=-0.4, k2=0.25        ewfd.Ez (V/m) @ lambda=1, k1=-0.4, k2=0.3         ewfd.Ez (V/m) @ lambda=1, k1=-0.4, k2=0.35        ewfd.Ez (V/m) @ lambda=1, k1=-0.4, k2=0.4         ewfd.Ez (V/m) @ lambda=1, k1=-0.4, k2=0.45        ewfd.Ez (V/m) @ lambda=1, k1=-0.4, k2=0.5         ewfd.Ez (V/m) @ lambda=1, k1=-0.35, k2=-0.5       ewfd.Ez (V/m) @ lambda=1, k1=-0.35, k2=-0.45      ewfd.Ez (V/m) @ lambda=1, k1=-0.35, k2=-0.4       ewfd.Ez (V/m) @ lambda=1, k1=-0.35, k2=-0.35      ewfd.Ez (V/m) @ lambda=1, k1=-0.35, k2=-0.3       ewfd.Ez (V/m) @ lambda=1, k1=-0.35, k2=-0.25      ewfd.Ez (V/m) @ lambda=1, k1=-0.35, k2=-0.2       ewfd.Ez (V/m) @ lambda=1, k1=-0.35, k2=-0.15      ewfd.Ez (V/m) @ lambda=1, k1=-0.35, k2=-0.1       ewfd.Ez (V/m) @ lambda=1, k1=-0.35, k2=-0.05      ewfd.Ez (V/m) @ lambda=1, k1=-0.35, k2=0          ewfd.Ez (V/m) @ lambda=1, k1=-0.35, k2=0.05       ewfd.Ez (V/m) @ lambda=1, k1=-0.35, k2=0.1        ewfd.Ez (V/m) @ lambda=1, k1=-0.35, k2=0.15       ewfd.Ez (V/m) @ lambda=1, k1=-0.35, k2=0.2        ewfd.Ez (V/m) @ lambda=1, k1=-0.35, k2=0.25       ewfd.Ez (V/m) @ lambda=1, k1=-0.35, k2=0.3        ewfd.Ez (V/m) @ lambda=1, k1=-0.35, k2=0.35       ewfd.Ez (V/m) @ lambda=1, k1=-0.35, k2=0.4        ewfd.Ez (V/m) @ lambda=1, k1=-0.35, k2=0.45       ewfd.Ez (V/m) @ lambda=1, k1=-0.35, k2=0.5        ewfd.Ez (V/m) @ lambda=1, k1=-0.3, k2=-0.5        ewfd.Ez (V/m) @ lambda=1, k1=-0.3, k2=-0.45       ewfd.Ez (V/m) @ lambda=1, k1=-0.3, k2=-0.4        ewfd.Ez (V/m) @ lambda=1, k1=-0.3, k2=-0.35       ewfd.Ez (V/m) @ lambda=1, k1=-0.3, k2=-0.3        ewfd.Ez (V/m) @ lambda=1, k1=-0.3, k2=-0.25       ewfd.Ez (V/m) @ lambda=1, k1=-0.3, k2=-0.2        ewfd.Ez (V/m) @ lambda=1, k1=-0.3, k2=-0.15       ewfd.Ez (V/m) @ lambda=1, k1=-0.3, k2=-0.1        ewfd.Ez (V/m) @ lambda=1, k1=-0.3, k2=-0.05       ewfd.Ez (V/m) @ lambda=1, k1=-0.3, k2=0           ewfd.Ez (V/m) @ lambda=1, k1=-0.3, k2=0.05        ewfd.Ez (V/m) @ lambda=1, k1=-0.3, k2=0.1         ewfd.Ez (V/m) @ lambda=1, k1=-0.3, k2=0.15        ewfd.Ez (V/m) @ lambda=1, k1=-0.3, k2=0.2         ewfd.Ez (V/m) @ lambda=1, k1=-0.3, k2=0.25        ewfd.Ez (V/m) @ lambda=1, k1=-0.3, k2=0.3         ewfd.Ez (V/m) @ lambda=1, k1=-0.3, k2=0.35        ewfd.Ez (V/m) @ lambda=1, k1=-0.3, k2=0.4         ewfd.Ez (V/m) @ lambda=1, k1=-0.3, k2=0.45        ewfd.Ez (V/m) @ lambda=1, k1=-0.3, k2=0.5         ewfd.Ez (V/m) @ lambda=1, k1=-0.25, k2=-0.5       ewfd.Ez (V/m) @ lambda=1, k1=-0.25, k2=-0.45      ewfd.Ez (V/m) @ lambda=1, k1=-0.25, k2=-0.4       ewfd.Ez (V/m) @ lambda=1, k1=-0.25, k2=-0.35      ewfd.Ez (V/m) @ lambda=1, k1=-0.25, k2=-0.3       ewfd.Ez (V/m) @ lambda=1, k1=-0.25, k2=-0.25      ewfd.Ez (V/m) @ lambda=1, k1=-0.25, k2=-0.2       ewfd.Ez (V/m) @ lambda=1, k1=-0.25, k2=-0.15      ewfd.Ez (V/m) @ lambda=1, k1=-0.25, k2=-0.1       ewfd.Ez (V/m) @ lambda=1, k1=-0.25, k2=-0.05      ewfd.Ez (V/m) @ lambda=1, k1=-0.25, k2=0          ewfd.Ez (V/m) @ lambda=1, k1=-0.25, k2=0.05       ewfd.Ez (V/m) @ lambda=1, k1=-0.25, k2=0.1        ewfd.Ez (V/m) @ lambda=1, k1=-0.25, k2=0.15       ewfd.Ez (V/m) @ lambda=1, k1=-0.25, k2=0.2        ewfd.Ez (V/m) @ lambda=1, k1=-0.25, k2=0.25       ewfd.Ez (V/m) @ lambda=1, k1=-0.25, k2=0.3        ewfd.Ez (V/m) @ lambda=1, k1=-0.25, k2=0.35       ewfd.Ez (V/m) @ lambda=1, k1=-0.25, k2=0.4        ewfd.Ez (V/m) @ lambda=1, k1=-0.25, k2=0.45       ewfd.Ez (V/m) @ lambda=1, k1=-0.25, k2=0.5        ewfd.Ez (V/m) @ lambda=1, k1=-0.2, k2=-0.5        ewfd.Ez (V/m) @ lambda=1, k1=-0.2, k2=-0.45       ewfd.Ez (V/m) @ lambda=1, k1=-0.2, k2=-0.4        ewfd.Ez (V/m) @ lambda=1, k1=-0.2, k2=-0.35       ewfd.Ez (V/m) @ lambda=1, k1=-0.2, k2=-0.3        ewfd.Ez (V/m) @ lambda=1, k1=-0.2, k2=-0.25       ewfd.Ez (V/m) @ lambda=1, k1=-0.2, k2=-0.2        ewfd.Ez (V/m) @ lambda=1, k1=-0.2, k2=-0.15       ewfd.Ez (V/m) @ lambda=1, k1=-0.2, k2=-0.1        ewfd.Ez (V/m) @ lambda=1, k1=-0.2, k2=-0.05       ewfd.Ez (V/m) @ lambda=1, k1=-0.2, k2=0           ewfd.Ez (V/m) @ lambda=1, k1=-0.2, k2=0.05        ewfd.Ez (V/m) @ lambda=1, k1=-0.2, k2=0.1         ewfd.Ez (V/m) @ lambda=1, k1=-0.2, k2=0.15        ewfd.Ez (V/m) @ lambda=1, k1=-0.2, k2=0.2         ewfd.Ez (V/m) @ lambda=1, k1=-0.2, k2=0.25        ewfd.Ez (V/m) @ lambda=1, k1=-0.2, k2=0.3         ewfd.Ez (V/m) @ lambda=1, k1=-0.2, k2=0.35        ewfd.Ez (V/m) @ lambda=1, k1=-0.2, k2=0.4         ewfd.Ez (V/m) @ lambda=1, k1=-0.2, k2=0.45        ewfd.Ez (V/m) @ lambda=1, k1=-0.2, k2=0.5         ewfd.Ez (V/m) @ lambda=1, k1=-0.15, k2=-0.5       ewfd.Ez (V/m) @ lambda=1, k1=-0.15, k2=-0.45      ewfd.Ez (V/m) @ lambda=1, k1=-0.15, k2=-0.4       ewfd.Ez (V/m) @ lambda=1, k1=-0.15, k2=-0.35      ewfd.Ez (V/m) @ lambda=1, k1=-0.15, k2=-0.3       ewfd.Ez (V/m) @ lambda=1, k1=-0.15, k2=-0.25      ewfd.Ez (V/m) @ lambda=1, k1=-0.15, k2=-0.2       ewfd.Ez (V/m) @ lambda=1, k1=-0.15, k2=-0.15      ewfd.Ez (V/m) @ lambda=1, k1=-0.15, k2=-0.1       ewfd.Ez (V/m) @ lambda=1, k1=-0.15, k2=-0.05      ewfd.Ez (V/m) @ lambda=1, k1=-0.15, k2=0          ewfd.Ez (V/m) @ lambda=1, k1=-0.15, k2=0.05       ewfd.Ez (V/m) @ lambda=1, k1=-0.15, k2=0.1        ewfd.Ez (V/m) @ lambda=1, k1=-0.15, k2=0.15       ewfd.Ez (V/m) @ lambda=1, k1=-0.15, k2=0.2        ewfd.Ez (V/m) @ lambda=1, k1=-0.15, k2=0.25       ewfd.Ez (V/m) @ lambda=1, k1=-0.15, k2=0.3        ewfd.Ez (V/m) @ lambda=1, k1=-0.15, k2=0.35       ewfd.Ez (V/m) @ lambda=1, k1=-0.15, k2=0.4        ewfd.Ez (V/m) @ lambda=1, k1=-0.15, k2=0.45       ewfd.Ez (V/m) @ lambda=1, k1=-0.15, k2=0.5        ewfd.Ez (V/m) @ lambda=1, k1=-0.1, k2=-0.5        ewfd.Ez (V/m) @ lambda=1, k1=-0.1, k2=-0.45       ewfd.Ez (V/m) @ lambda=1, k1=-0.1, k2=-0.4        ewfd.Ez (V/m) @ lambda=1, k1=-0.1, k2=-0.35       ewfd.Ez (V/m) @ lambda=1, k1=-0.1, k2=-0.3        ewfd.Ez (V/m) @ lambda=1, k1=-0.1, k2=-0.25       ewfd.Ez (V/m) @ lambda=1, k1=-0.1, k2=-0.2        ewfd.Ez (V/m) @ lambda=1, k1=-0.1, k2=-0.15       ewfd.Ez (V/m) @ lambda=1, k1=-0.1, k2=-0.1        ewfd.Ez (V/m) @ lambda=1, k1=-0.1, k2=-0.05       ewfd.Ez (V/m) @ lambda=1, k1=-0.1, k2=0           ewfd.Ez (V/m) @ lambda=1, k1=-0.1, k2=0.05        ewfd.Ez (V/m) @ lambda=1, k1=-0.1, k2=0.1         ewfd.Ez (V/m) @ lambda=1, k1=-0.1, k2=0.15        ewfd.Ez (V/m) @ lambda=1, k1=-0.1, k2=0.2         ewfd.Ez (V/m) @ lambda=1, k1=-0.1, k2=0.25        ewfd.Ez (V/m) @ lambda=1, k1=-0.1, k2=0.3         ewfd.Ez (V/m) @ lambda=1, k1=-0.1, k2=0.35        ewfd.Ez (V/m) @ lambda=1, k1=-0.1, k2=0.4         ewfd.Ez (V/m) @ lambda=1, k1=-0.1, k2=0.45        ewfd.Ez (V/m) @ lambda=1, k1=-0.1, k2=0.5         ewfd.Ez (V/m) @ lambda=1, k1=-0.05, k2=-0.5       ewfd.Ez (V/m) @ lambda=1, k1=-0.05, k2=-0.45      ewfd.Ez (V/m) @ lambda=1, k1=-0.05, k2=-0.4       ewfd.Ez (V/m) @ lambda=1, k1=-0.05, k2=-0.35      ewfd.Ez (V/m) @ lambda=1, k1=-0.05, k2=-0.3       ewfd.Ez (V/m) @ lambda=1, k1=-0.05, k2=-0.25      ewfd.Ez (V/m) @ lambda=1, k1=-0.05, k2=-0.2       ewfd.Ez (V/m) @ lambda=1, k1=-0.05, k2=-0.15      ewfd.Ez (V/m) @ lambda=1, k1=-0.05, k2=-0.1       ewfd.Ez (V/m) @ lambda=1, k1=-0.05, k2=-0.05      ewfd.Ez (V/m) @ lambda=1, k1=-0.05, k2=0          ewfd.Ez (V/m) @ lambda=1, k1=-0.05, k2=0.05       ewfd.Ez (V/m) @ lambda=1, k1=-0.05, k2=0.1        ewfd.Ez (V/m) @ lambda=1, k1=-0.05, k2=0.15       ewfd.Ez (V/m) @ lambda=1, k1=-0.05, k2=0.2        ewfd.Ez (V/m) @ lambda=1, k1=-0.05, k2=0.25       ewfd.Ez (V/m) @ lambda=1, k1=-0.05, k2=0.3        ewfd.Ez (V/m) @ lambda=1, k1=-0.05, k2=0.35       ewfd.Ez (V/m) @ lambda=1, k1=-0.05, k2=0.4        ewfd.Ez (V/m) @ lambda=1, k1=-0.05, k2=0.45       ewfd.Ez (V/m) @ lambda=1, k1=-0.05, k2=0.5        ewfd.Ez (V/m) @ lambda=1, k1=0, k2=-0.5           ewfd.Ez (V/m) @ lambda=1, k1=0, k2=-0.45          ewfd.Ez (V/m) @ lambda=1, k1=0, k2=-0.4           ewfd.Ez (V/m) @ lambda=1, k1=0, k2=-0.35          ewfd.Ez (V/m) @ lambda=1, k1=0, k2=-0.3           ewfd.Ez (V/m) @ lambda=1, k1=0, k2=-0.25          ewfd.Ez (V/m) @ lambda=1, k1=0, k2=-0.2           ewfd.Ez (V/m) @ lambda=1, k1=0, k2=-0.15          ewfd.Ez (V/m) @ lambda=1, k1=0, k2=-0.1           ewfd.Ez (V/m) @ lambda=1, k1=0, k2=-0.05          ewfd.Ez (V/m) @ lambda=1, k1=0, k2=0 ewfd.Ez (V/m) @ lambda=1, k1=0, k2=0.05           ewfd.Ez (V/m) @ lambda=1, k1=0, k2=0.1            ewfd.Ez (V/m) @ lambda=1, k1=0, k2=0.15           ewfd.Ez (V/m) @ lambda=1, k1=0, k2=0.2            ewfd.Ez (V/m) @ lambda=1, k1=0, k2=0.25           ewfd.Ez (V/m) @ lambda=1, k1=0, k2=0.3            ewfd.Ez (V/m) @ lambda=1, k1=0, k2=0.35           ewfd.Ez (V/m) @ lambda=1, k1=0, k2=0.4            ewfd.Ez (V/m) @ lambda=1, k1=0, k2=0.45           ewfd.Ez (V/m) @ lambda=1, k1=0, k2=0.5            ewfd.Ez (V/m) @ lambda=1, k1=0.05, k2=-0.5        ewfd.Ez (V/m) @ lambda=1, k1=0.05, k2=-0.45       ewfd.Ez (V/m) @ lambda=1, k1=0.05, k2=-0.4        ewfd.Ez (V/m) @ lambda=1, k1=0.05, k2=-0.35       ewfd.Ez (V/m) @ lambda=1, k1=0.05, k2=-0.3        ewfd.Ez (V/m) @ lambda=1, k1=0.05, k2=-0.25       ewfd.Ez (V/m) @ lambda=1, k1=0.05, k2=-0.2        ewfd.Ez (V/m) @ lambda=1, k1=0.05, k2=-0.15       ewfd.Ez (V/m) @ lambda=1, k1=0.05, k2=-0.1        ewfd.Ez (V/m) @ lambda=1, k1=0.05, k2=-0.05       ewfd.Ez (V/m) @ lambda=1, k1=0.05, k2=0           ewfd.Ez (V/m) @ lambda=1, k1=0.05, k2=0.05        ewfd.Ez (V/m) @ lambda=1, k1=0.05, k2=0.1         ewfd.Ez (V/m) @ lambda=1, k1=0.05, k2=0.15        ewfd.Ez (V/m) @ lambda=1, k1=0.05, k2=0.2         ewfd.Ez (V/m) @ lambda=1, k1=0.05, k2=0.25        ewfd.Ez (V/m) @ lambda=1, k1=0.05, k2=0.3         ewfd.Ez (V/m) @ lambda=1, k1=0.05, k2=0.35        ewfd.Ez (V/m) @ lambda=1, k1=0.05, k2=0.4         ewfd.Ez (V/m) @ lambda=1, k1=0.05, k2=0.45        ewfd.Ez (V/m) @ lambda=1, k1=0.05, k2=0.5         ewfd.Ez (V/m) @ lambda=1, k1=0.1, k2=-0.5         ewfd.Ez (V/m) @ lambda=1, k1=0.1, k2=-0.45        ewfd.Ez (V/m) @ lambda=1, k1=0.1, k2=-0.4         ewfd.Ez (V/m) @ lambda=1, k1=0.1, k2=-0.35        ewfd.Ez (V/m) @ lambda=1, k1=0.1, k2=-0.3         ewfd.Ez (V/m) @ lambda=1, k1=0.1, k2=-0.25        ewfd.Ez (V/m) @ lambda=1, k1=0.1, k2=-0.2         ewfd.Ez (V/m) @ lambda=1, k1=0.1, k2=-0.15        ewfd.Ez (V/m) @ lambda=1, k1=0.1, k2=-0.1         ewfd.Ez (V/m) @ lambda=1, k1=0.1, k2=-0.05        ewfd.Ez (V/m) @ lambda=1, k1=0.1, k2=0            ewfd.Ez (V/m) @ lambda=1, k1=0.1, k2=0.05         ewfd.Ez (V/m) @ lambda=1, k1=0.1, k2=0.1          ewfd.Ez (V/m) @ lambda=1, k1=0.1, k2=0.15         ewfd.Ez (V/m) @ lambda=1, k1=0.1, k2=0.2          ewfd.Ez (V/m) @ lambda=1, k1=0.1, k2=0.25         ewfd.Ez (V/m) @ lambda=1, k1=0.1, k2=0.3          ewfd.Ez (V/m) @ lambda=1, k1=0.1, k2=0.35         ewfd.Ez (V/m) @ lambda=1, k1=0.1, k2=0.4          ewfd.Ez (V/m) @ lambda=1, k1=0.1, k2=0.45         ewfd.Ez (V/m) @ lambda=1, k1=0.1, k2=0.5          ewfd.Ez (V/m) @ lambda=1, k1=0.15, k2=-0.5        ewfd.Ez (V/m) @ lambda=1, k1=0.15, k2=-0.45       ewfd.Ez (V/m) @ lambda=1, k1=0.15, k2=-0.4        ewfd.Ez (V/m) @ lambda=1, k1=0.15, k2=-0.35       ewfd.Ez (V/m) @ lambda=1, k1=0.15, k2=-0.3        ewfd.Ez (V/m) @ lambda=1, k1=0.15, k2=-0.25       ewfd.Ez (V/m) @ lambda=1, k1=0.15, k2=-0.2        ewfd.Ez (V/m) @ lambda=1, k1=0.15, k2=-0.15       ewfd.Ez (V/m) @ lambda=1, k1=0.15, k2=-0.1        ewfd.Ez (V/m) @ lambda=1, k1=0.15, k2=-0.05       ewfd.Ez (V/m) @ lambda=1, k1=0.15, k2=0           ewfd.Ez (V/m) @ lambda=1, k1=0.15, k2=0.05        ewfd.Ez (V/m) @ lambda=1, k1=0.15, k2=0.1         ewfd.Ez (V/m) @ lambda=1, k1=0.15, k2=0.15        ewfd.Ez (V/m) @ lambda=1, k1=0.15, k2=0.2         ewfd.Ez (V/m) @ lambda=1, k1=0.15, k2=0.25        ewfd.Ez (V/m) @ lambda=1, k1=0.15, k2=0.3         ewfd.Ez (V/m) @ lambda=1, k1=0.15, k2=0.35        ewfd.Ez (V/m) @ lambda=1, k1=0.15, k2=0.4         ewfd.Ez (V/m) @ lambda=1, k1=0.15, k2=0.45        ewfd.Ez (V/m) @ lambda=1, k1=0.15, k2=0.5         ewfd.Ez (V/m) @ lambda=1, k1=0.2, k2=-0.5         ewfd.Ez (V/m) @ lambda=1, k1=0.2, k2=-0.45        ewfd.Ez (V/m) @ lambda=1, k1=0.2, k2=-0.4         ewfd.Ez (V/m) @ lambda=1, k1=0.2, k2=-0.35        ewfd.Ez (V/m) @ lambda=1, k1=0.2, k2=-0.3         ewfd.Ez (V/m) @ lambda=1, k1=0.2, k2=-0.25        ewfd.Ez (V/m) @ lambda=1, k1=0.2, k2=-0.2         ewfd.Ez (V/m) @ lambda=1, k1=0.2, k2=-0.15        ewfd.Ez (V/m) @ lambda=1, k1=0.2, k2=-0.1         ewfd.Ez (V/m) @ lambda=1, k1=0.2, k2=-0.05        ewfd.Ez (V/m) @ lambda=1, k1=0.2, k2=0            ewfd.Ez (V/m) @ lambda=1, k1=0.2, k2=0.05         ewfd.Ez (V/m) @ lambda=1, k1=0.2, k2=0.1          ewfd.Ez (V/m) @ lambda=1, k1=0.2, k2=0.15         ewfd.Ez (V/m) @ lambda=1, k1=0.2, k2=0.2          ewfd.Ez (V/m) @ lambda=1, k1=0.2, k2=0.25         ewfd.Ez (V/m) @ lambda=1, k1=0.2, k2=0.3          ewfd.Ez (V/m) @ lambda=1, k1=0.2, k2=0.35         ewfd.Ez (V/m) @ lambda=1, k1=0.2, k2=0.4          ewfd.Ez (V/m) @ lambda=1, k1=0.2, k2=0.45         ewfd.Ez (V/m) @ lambda=1, k1=0.2, k2=0.5          ewfd.Ez (V/m) @ lambda=1, k1=0.25, k2=-0.5        ewfd.Ez (V/m) @ lambda=1, k1=0.25, k2=-0.45       ewfd.Ez (V/m) @ lambda=1, k1=0.25, k2=-0.4        ewfd.Ez (V/m) @ lambda=1, k1=0.25, k2=-0.35       ewfd.Ez (V/m) @ lambda=1, k1=0.25, k2=-0.3        ewfd.Ez (V/m) @ lambda=1, k1=0.25, k2=-0.25       ewfd.Ez (V/m) @ lambda=1, k1=0.25, k2=-0.2        ewfd.Ez (V/m) @ lambda=1, k1=0.25, k2=-0.15       ewfd.Ez (V/m) @ lambda=1, k1=0.25, k2=-0.1        ewfd.Ez (V/m) @ lambda=1, k1=0.25, k2=-0.05       ewfd.Ez (V/m) @ lambda=1, k1=0.25, k2=0           ewfd.Ez (V/m) @ lambda=1, k1=0.25, k2=0.05        ewfd.Ez (V/m) @ lambda=1, k1=0.25, k2=0.1         ewfd.Ez (V/m) @ lambda=1, k1=0.25, k2=0.15        ewfd.Ez (V/m) @ lambda=1, k1=0.25, k2=0.2         ewfd.Ez (V/m) @ lambda=1, k1=0.25, k2=0.25        ewfd.Ez (V/m) @ lambda=1, k1=0.25, k2=0.3         ewfd.Ez (V/m) @ lambda=1, k1=0.25, k2=0.35        ewfd.Ez (V/m) @ lambda=1, k1=0.25, k2=0.4         ewfd.Ez (V/m) @ lambda=1, k1=0.25, k2=0.45        ewfd.Ez (V/m) @ lambda=1, k1=0.25, k2=0.5         ewfd.Ez (V/m) @ lambda=1, k1=0.3, k2=-0.5         ewfd.Ez (V/m) @ lambda=1, k1=0.3, k2=-0.45        ewfd.Ez (V/m) @ lambda=1, k1=0.3, k2=-0.4         ewfd.Ez (V/m) @ lambda=1, k1=0.3, k2=-0.35        ewfd.Ez (V/m) @ lambda=1, k1=0.3, k2=-0.3         ewfd.Ez (V/m) @ lambda=1, k1=0.3, k2=-0.25        ewfd.Ez (V/m) @ lambda=1, k1=0.3, k2=-0.2         ewfd.Ez (V/m) @ lambda=1, k1=0.3, k2=-0.15        ewfd.Ez (V/m) @ lambda=1, k1=0.3, k2=-0.1         ewfd.Ez (V/m) @ lambda=1, k1=0.3, k2=-0.05        ewfd.Ez (V/m) @ lambda=1, k1=0.3, k2=0            ewfd.Ez (V/m) @ lambda=1, k1=0.3, k2=0.05         ewfd.Ez (V/m) @ lambda=1, k1=0.3, k2=0.1          ewfd.Ez (V/m) @ lambda=1, k1=0.3, k2=0.15         ewfd.Ez (V/m) @ lambda=1, k1=0.3, k2=0.2          ewfd.Ez (V/m) @ lambda=1, k1=0.3, k2=0.25         ewfd.Ez (V/m) @ lambda=1, k1=0.3, k2=0.3          ewfd.Ez (V/m) @ lambda=1, k1=0.3, k2=0.35         ewfd.Ez (V/m) @ lambda=1, k1=0.3, k2=0.4          ewfd.Ez (V/m) @ lambda=1, k1=0.3, k2=0.45         ewfd.Ez (V/m) @ lambda=1, k1=0.3, k2=0.5          ewfd.Ez (V/m) @ lambda=1, k1=0.35, k2=-0.5        ewfd.Ez (V/m) @ lambda=1, k1=0.35, k2=-0.45       ewfd.Ez (V/m) @ lambda=1, k1=0.35, k2=-0.4        ewfd.Ez (V/m) @ lambda=1, k1=0.35, k2=-0.35       ewfd.Ez (V/m) @ lambda=1, k1=0.35, k2=-0.3        ewfd.Ez (V/m) @ lambda=1, k1=0.35, k2=-0.25       ewfd.Ez (V/m) @ lambda=1, k1=0.35, k2=-0.2        ewfd.Ez (V/m) @ lambda=1, k1=0.35, k2=-0.15       ewfd.Ez (V/m) @ lambda=1, k1=0.35, k2=-0.1        ewfd.Ez (V/m) @ lambda=1, k1=0.35, k2=-0.05       ewfd.Ez (V/m) @ lambda=1, k1=0.35, k2=0           ewfd.Ez (V/m) @ lambda=1, k1=0.35, k2=0.05        ewfd.Ez (V/m) @ lambda=1, k1=0.35, k2=0.1         ewfd.Ez (V/m) @ lambda=1, k1=0.35, k2=0.15        ewfd.Ez (V/m) @ lambda=1, k1=0.35, k2=0.2         ewfd.Ez (V/m) @ lambda=1, k1=0.35, k2=0.25        ewfd.Ez (V/m) @ lambda=1, k1=0.35, k2=0.3         ewfd.Ez (V/m) @ lambda=1, k1=0.35, k2=0.35        ewfd.Ez (V/m) @ lambda=1, k1=0.35, k2=0.4         ewfd.Ez (V/m) @ lambda=1, k1=0.35, k2=0.45        ewfd.Ez (V/m) @ lambda=1, k1=0.35, k2=0.5         ewfd.Ez (V/m) @ lambda=1, k1=0.4, k2=-0.5         ewfd.Ez (V/m) @ lambda=1, k1=0.4, k2=-0.45        ewfd.Ez (V/m) @ lambda=1, k1=0.4, k2=-0.4         ewfd.Ez (V/m) @ lambda=1, k1=0.4, k2=-0.35        ewfd.Ez (V/m) @ lambda=1, k1=0.4, k2=-0.3         ewfd.Ez (V/m) @ lambda=1, k1=0.4, k2=-0.25        ewfd.Ez (V/m) @ lambda=1, k1=0.4, k2=-0.2         ewfd.Ez (V/m) @ lambda=1, k1=0.4, k2=-0.15        ewfd.Ez (V/m) @ lambda=1, k1=0.4, k2=-0.1         ewfd.Ez (V/m) @ lambda=1, k1=0.4, k2=-0.05        ewfd.Ez (V/m) @ lambda=1, k1=0.4, k2=0            ewfd.Ez (V/m) @ lambda=1, k1=0.4, k2=0.05         ewfd.Ez (V/m) @ lambda=1, k1=0.4, k2=0.1          ewfd.Ez (V/m) @ lambda=1, k1=0.4, k2=0.15         ewfd.Ez (V/m) @ lambda=1, k1=0.4, k2=0.2          ewfd.Ez (V/m) @ lambda=1, k1=0.4, k2=0.25         ewfd.Ez (V/m) @ lambda=1, k1=0.4, k2=0.3          ewfd.Ez (V/m) @ lambda=1, k1=0.4, k2=0.35         ewfd.Ez (V/m) @ lambda=1, k1=0.4, k2=0.4          ewfd.Ez (V/m) @ lambda=1, k1=0.4, k2=0.45         ewfd.Ez (V/m) @ lambda=1, k1=0.4, k2=0.5          ewfd.Ez (V/m) @ lambda=1, k1=0.45, k2=-0.5        ewfd.Ez (V/m) @ lambda=1, k1=0.45, k2=-0.45       ewfd.Ez (V/m) @ lambda=1, k1=0.45, k2=-0.4        ewfd.Ez (V/m) @ lambda=1, k1=0.45, k2=-0.35       ewfd.Ez (V/m) @ lambda=1, k1=0.45, k2=-0.3        ewfd.Ez (V/m) @ lambda=1, k1=0.45, k2=-0.25       ewfd.Ez (V/m) @ lambda=1, k1=0.45, k2=-0.2        ewfd.Ez (V/m) @ lambda=1, k1=0.45, k2=-0.15       ewfd.Ez (V/m) @ lambda=1, k1=0.45, k2=-0.1        ewfd.Ez (V/m) @ lambda=1, k1=0.45, k2=-0.05       ewfd.Ez (V/m) @ lambda=1, k1=0.45, k2=0           ewfd.Ez (V/m) @ lambda=1, k1=0.45, k2=0.05        ewfd.Ez (V/m) @ lambda=1, k1=0.45, k2=0.1         ewfd.Ez (V/m) @ lambda=1, k1=0.45, k2=0.15        ewfd.Ez (V/m) @ lambda=1, k1=0.45, k2=0.2         ewfd.Ez (V/m) @ lambda=1, k1=0.45, k2=0.25        ewfd.Ez (V/m) @ lambda=1, k1=0.45, k2=0.3         ewfd.Ez (V/m) @ lambda=1, k1=0.45, k2=0.35        ewfd.Ez (V/m) @ lambda=1, k1=0.45, k2=0.4         ewfd.Ez (V/m) @ lambda=1, k1=0.45, k2=0.45        ewfd.Ez (V/m) @ lambda=1, k1=0.45, k2=0.5         ewfd.Ez (V/m) @ lambda=1, k1=0.5, k2=-0.5         ewfd.Ez (V/m) @ lambda=1, k1=0.5, k2=-0.45        ewfd.Ez (V/m) @ lambda=1, k1=0.5, k2=-0.4         ewfd.Ez (V/m) @ lambda=1, k1=0.5, k2=-0.35        ewfd.Ez (V/m) @ lambda=1, k1=0.5, k2=-0.3         ewfd.Ez (V/m) @ lambda=1, k1=0.5, k2=-0.25        ewfd.Ez (V/m) @ lambda=1, k1=0.5, k2=-0.2         ewfd.Ez (V/m) @ lambda=1, k1=0.5, k2=-0.15        ewfd.Ez (V/m) @ lambda=1, k1=0.5, k2=-0.1         ewfd.Ez (V/m) @ lambda=1, k1=0.5, k2=-0.05        ewfd.Ez (V/m) @ lambda=1, k1=0.5, k2=0            ewfd.Ez (V/m) @ lambda=1, k1=0.5, k2=0.05         ewfd.Ez (V/m) @ lambda=1, k1=0.5, k2=0.1          ewfd.Ez (V/m) @ lambda=1, k1=0.5, k2=0.15         ewfd.Ez (V/m) @ lambda=1, k1=0.5, k2=0.2          ewfd.Ez (V/m) @ lambda=1, k1=0.5, k2=0.25         ewfd.Ez (V/m) @ lambda=1, k1=0.5, k2=0.3          ewfd.Ez (V/m) @ lambda=1, k1=0.5, k2=0.35         ewfd.Ez (V/m) @ lambda=1, k1=0.5, k2=0.4          ewfd.Ez (V/m) @ lambda=1, k1=0.5, k2=0.45         ewfd.Ez (V/m) @ lambda=1, k1=0.5, k2=0.5