% Model:              c4扩张收缩.mph
% Version:            COMSOL 5.4.0.225
% Date:               Apr 24 2021, 14:47
% Dimension:          2
% Nodes:              15
% Expressions:        400
% Description:        电场，z 分量
% Length unit:        m
% X                       Y                        ewfd.Ez (V/m) @ lambda=1, k1=-0.49, k2=-0.5       ewfd.Ez (V/m) @ lambda=1, k1=-0.49, k2=-0.449     ewfd.Ez (V/m) @ lambda=1, k1=-0.49, k2=-0.398     ewfd.Ez (V/m) @ lambda=1, k1=-0.49, k2=-0.347     ewfd.Ez (V/m) @ lambda=1, k1=-0.49, k2=-0.296     ewfd.Ez (V/m) @ lambda=1, k1=-0.49, k2=-0.245     ewfd.Ez (V/m) @ lambda=1, k1=-0.49, k2=-0.194     ewfd.Ez (V/m) @ lambda=1, k1=-0.49, k2=-0.143     ewfd.Ez (V/m) @ lambda=1, k1=-0.49, k2=-0.092     ewfd.Ez (V/m) @ lambda=1, k1=-0.49, k2=-0.041     ewfd.Ez (V/m) @ lambda=1, k1=-0.49, k2=0.01       ewfd.Ez (V/m) @ lambda=1, k1=-0.49, k2=0.061      ewfd.Ez (V/m) @ lambda=1, k1=-0.49, k2=0.112      ewfd.Ez (V/m) @ lambda=1, k1=-0.49, k2=0.163      ewfd.Ez (V/m) @ lambda=1, k1=-0.49, k2=0.214      ewfd.Ez (V/m) @ lambda=1, k1=-0.49, k2=0.265      ewfd.Ez (V/m) @ lambda=1, k1=-0.49, k2=0.316      ewfd.Ez (V/m) @ lambda=1, k1=-0.49, k2=0.367      ewfd.Ez (V/m) @ lambda=1, k1=-0.49, k2=0.418      ewfd.Ez (V/m) @ lambda=1, k1=-0.49, k2=0.469      ewfd.Ez (V/m) @ lambda=1, k1=-0.439, k2=-0.5      ewfd.Ez (V/m) @ lambda=1, k1=-0.439, k2=-0.449    ewfd.Ez (V/m) @ lambda=1, k1=-0.439, k2=-0.398    ewfd.Ez (V/m) @ lambda=1, k1=-0.439, k2=-0.347    ewfd.Ez (V/m) @ lambda=1, k1=-0.439, k2=-0.296    ewfd.Ez (V/m) @ lambda=1, k1=-0.439, k2=-0.245    ewfd.Ez (V/m) @ lambda=1, k1=-0.439, k2=-0.194    ewfd.Ez (V/m) @ lambda=1, k1=-0.439, k2=-0.143    ewfd.Ez (V/m) @ lambda=1, k1=-0.439, k2=-0.092    ewfd.Ez (V/m) @ lambda=1, k1=-0.439, k2=-0.041    ewfd.Ez (V/m) @ lambda=1, k1=-0.439, k2=0.01      ewfd.Ez (V/m) @ lambda=1, k1=-0.439, k2=0.061     ewfd.Ez (V/m) @ lambda=1, k1=-0.439, k2=0.112     ewfd.Ez (V/m) @ lambda=1, k1=-0.439, k2=0.163     ewfd.Ez (V/m) @ lambda=1, k1=-0.439, k2=0.214     ewfd.Ez (V/m) @ lambda=1, k1=-0.439, k2=0.265     ewfd.Ez (V/m) @ lambda=1, k1=-0.439, k2=0.316     ewfd.Ez (V/m) @ lambda=1, k1=-0.439, k2=0.367     ewfd.Ez (V/m) @ lambda=1, k1=-0.439, k2=0.418     ewfd.Ez (V/m) @ lambda=1, k1=-0.439, k2=0.469     ewfd.Ez (V/m) @ lambda=1, k1=-0.388, k2=-0.5      ewfd.Ez (V/m) @ lambda=1, k1=-0.388, k2=-0.449    ewfd.Ez (V/m) @ lambda=1, k1=-0.388, k2=-0.398    ewfd.Ez (V/m) @ lambda=1, k1=-0.388, k2=-0.347    ewfd.Ez (V/m) @ lambda=1, k1=-0.388, k2=-0.296    ewfd.Ez (V/m) @ lambda=1, k1=-0.388, k2=-0.245    ewfd.Ez (V/m) @ lambda=1, k1=-0.388, k2=-0.194    ewfd.Ez (V/m) @ lambda=1, k1=-0.388, k2=-0.143    ewfd.Ez (V/m) @ lambda=1, k1=-0.388, k2=-0.092    ewfd.Ez (V/m) @ lambda=1, k1=-0.388, k2=-0.041    ewfd.Ez (V/m) @ lambda=1, k1=-0.388, k2=0.01      ewfd.Ez (V/m) @ lambda=1, k1=-0.388, k2=0.061     ewfd.Ez (V/m) @ lambda=1, k1=-0.388, k2=0.112     ewfd.Ez (V/m) @ lambda=1, k1=-0.388, k2=0.163     ewfd.Ez (V/m) @ lambda=1, k1=-0.388, k2=0.214     ewfd.Ez (V/m) @ lambda=1, k1=-0.388, k2=0.265     ewfd.Ez (V/m) @ lambda=1, k1=-0.388, k2=0.316     ewfd.Ez (V/m) @ lambda=1, k1=-0.388, k2=0.367     ewfd.Ez (V/m) @ lambda=1, k1=-0.388, k2=0.418     ewfd.Ez (V/m) @ lambda=1, k1=-0.388, k2=0.469     ewfd.Ez (V/m) @ lambda=1, k1=-0.337, k2=-0.5      ewfd.Ez (V/m) @ lambda=1, k1=-0.337, k2=-0.449    ewfd.Ez (V/m) @ lambda=1, k1=-0.337, k2=-0.398    ewfd.Ez (V/m) @ lambda=1, k1=-0.337, k2=-0.347    ewfd.Ez (V/m) @ lambda=1, k1=-0.337, k2=-0.296    ewfd.Ez (V/m) @ lambda=1, k1=-0.337, k2=-0.245    ewfd.Ez (V/m) @ lambda=1, k1=-0.337, k2=-0.194    ewfd.Ez (V/m) @ lambda=1, k1=-0.337, k2=-0.143    ewfd.Ez (V/m) @ lambda=1, k1=-0.337, k2=-0.092    ewfd.Ez (V/m) @ lambda=1, k1=-0.337, k2=-0.041    ewfd.Ez (V/m) @ lambda=1, k1=-0.337, k2=0.01      ewfd.Ez (V/m) @ lambda=1, k1=-0.337, k2=0.061     ewfd.Ez (V/m) @ lambda=1, k1=-0.337, k2=0.112     ewfd.Ez (V/m) @ lambda=1, k1=-0.337, k2=0.163     ewfd.Ez (V/m) @ lambda=1, k1=-0.337, k2=0.214     ewfd.Ez (V/m) @ lambda=1, k1=-0.337, k2=0.265     ewfd.Ez (V/m) @ lambda=1, k1=-0.337, k2=0.316     ewfd.Ez (V/m) @ lambda=1, k1=-0.337, k2=0.367     ewfd.Ez (V/m) @ lambda=1, k1=-0.337, k2=0.418     ewfd.Ez (V/m) @ lambda=1, k1=-0.337, k2=0.469     ewfd.Ez (V/m) @ lambda=1, k1=-0.286, k2=-0.5      ewfd.Ez (V/m) @ lambda=1, k1=-0.286, k2=-0.449    ewfd.Ez (V/m) @ lambda=1, k1=-0.286, k2=-0.398    ewfd.Ez (V/m) @ lambda=1, k1=-0.286, k2=-0.347    ewfd.Ez (V/m) @ lambda=1, k1=-0.286, k2=-0.296    ewfd.Ez (V/m) @ lambda=1, k1=-0.286, k2=-0.245    ewfd.Ez (V/m) @ lambda=1, k1=-0.286, k2=-0.194    ewfd.Ez (V/m) @ lambda=1, k1=-0.286, k2=-0.143    ewfd.Ez (V/m) @ lambda=1, k1=-0.286, k2=-0.092    ewfd.Ez (V/m) @ lambda=1, k1=-0.286, k2=-0.041    ewfd.Ez (V/m) @ lambda=1, k1=-0.286, k2=0.01      ewfd.Ez (V/m) @ lambda=1, k1=-0.286, k2=0.061     ewfd.Ez (V/m) @ lambda=1, k1=-0.286, k2=0.112     ewfd.Ez (V/m) @ lambda=1, k1=-0.286, k2=0.163     ewfd.Ez (V/m) @ lambda=1, k1=-0.286, k2=0.214     ewfd.Ez (V/m) @ lambda=1, k1=-0.286, k2=0.265     ewfd.Ez (V/m) @ lambda=1, k1=-0.286, k2=0.316     ewfd.Ez (V/m) @ lambda=1, k1=-0.286, k2=0.367     ewfd.Ez (V/m) @ lambda=1, k1=-0.286, k2=0.418     ewfd.Ez (V/m) @ lambda=1, k1=-0.286, k2=0.469     ewfd.Ez (V/m) @ lambda=1, k1=-0.235, k2=-0.5      ewfd.Ez (V/m) @ lambda=1, k1=-0.235, k2=-0.449    ewfd.Ez (V/m) @ lambda=1, k1=-0.235, k2=-0.398    ewfd.Ez (V/m) @ lambda=1, k1=-0.235, k2=-0.347    ewfd.Ez (V/m) @ lambda=1, k1=-0.235, k2=-0.296    ewfd.Ez (V/m) @ lambda=1, k1=-0.235, k2=-0.245    ewfd.Ez (V/m) @ lambda=1, k1=-0.235, k2=-0.194    ewfd.Ez (V/m) @ lambda=1, k1=-0.235, k2=-0.143    ewfd.Ez (V/m) @ lambda=1, k1=-0.235, k2=-0.092    ewfd.Ez (V/m) @ lambda=1, k1=-0.235, k2=-0.041    ewfd.Ez (V/m) @ lambda=1, k1=-0.235, k2=0.01      ewfd.Ez (V/m) @ lambda=1, k1=-0.235, k2=0.061     ewfd.Ez (V/m) @ lambda=1, k1=-0.235, k2=0.112     ewfd.Ez (V/m) @ lambda=1, k1=-0.235, k2=0.163     ewfd.Ez (V/m) @ lambda=1, k1=-0.235, k2=0.214     ewfd.Ez (V/m) @ lambda=1, k1=-0.235, k2=0.265     ewfd.Ez (V/m) @ lambda=1, k1=-0.235, k2=0.316     ewfd.Ez (V/m) @ lambda=1, k1=-0.235, k2=0.367     ewfd.Ez (V/m) @ lambda=1, k1=-0.235, k2=0.418     ewfd.Ez (V/m) @ lambda=1, k1=-0.235, k2=0.469     ewfd.Ez (V/m) @ lambda=1, k1=-0.184, k2=-0.5      ewfd.Ez (V/m) @ lambda=1, k1=-0.184, k2=-0.449    ewfd.Ez (V/m) @ lambda=1, k1=-0.184, k2=-0.398    ewfd.Ez (V/m) @ lambda=1, k1=-0.184, k2=-0.347    ewfd.Ez (V/m) @ lambda=1, k1=-0.184, k2=-0.296    ewfd.Ez (V/m) @ lambda=1, k1=-0.184, k2=-0.245    ewfd.Ez (V/m) @ lambda=1, k1=-0.184, k2=-0.194    ewfd.Ez (V/m) @ lambda=1, k1=-0.184, k2=-0.143    ewfd.Ez (V/m) @ lambda=1, k1=-0.184, k2=-0.092    ewfd.Ez (V/m) @ lambda=1, k1=-0.184, k2=-0.041    ewfd.Ez (V/m) @ lambda=1, k1=-0.184, k2=0.01      ewfd.Ez (V/m) @ lambda=1, k1=-0.184, k2=0.061     ewfd.Ez (V/m) @ lambda=1, k1=-0.184, k2=0.112     ewfd.Ez (V/m) @ lambda=1, k1=-0.184, k2=0.163     ewfd.Ez (V/m) @ lambda=1, k1=-0.184, k2=0.214     ewfd.Ez (V/m) @ lambda=1, k1=-0.184, k2=0.265     ewfd.Ez (V/m) @ lambda=1, k1=-0.184, k2=0.316     ewfd.Ez (V/m) @ lambda=1, k1=-0.184, k2=0.367     ewfd.Ez (V/m) @ lambda=1, k1=-0.184, k2=0.418     ewfd.Ez (V/m) @ lambda=1, k1=-0.184, k2=0.469     ewfd.Ez (V/m) @ lambda=1, k1=-0.133, k2=-0.5      ewfd.Ez (V/m) @ lambda=1, k1=-0.133, k2=-0.449    ewfd.Ez (V/m) @ lambda=1, k1=-0.133, k2=-0.398    ewfd.Ez (V/m) @ lambda=1, k1=-0.133, k2=-0.347    ewfd.Ez (V/m) @ lambda=1, k1=-0.133, k2=-0.296    ewfd.Ez (V/m) @ lambda=1, k1=-0.133, k2=-0.245    ewfd.Ez (V/m) @ lambda=1, k1=-0.133, k2=-0.194    ewfd.Ez (V/m) @ lambda=1, k1=-0.133, k2=-0.143    ewfd.Ez (V/m) @ lambda=1, k1=-0.133, k2=-0.092    ewfd.Ez (V/m) @ lambda=1, k1=-0.133, k2=-0.041    ewfd.Ez (V/m) @ lambda=1, k1=-0.133, k2=0.01      ewfd.Ez (V/m) @ lambda=1, k1=-0.133, k2=0.061     ewfd.Ez (V/m) @ lambda=1, k1=-0.133, k2=0.112     ewfd.Ez (V/m) @ lambda=1, k1=-0.133, k2=0.163     ewfd.Ez (V/m) @ lambda=1, k1=-0.133, k2=0.214     ewfd.Ez (V/m) @ lambda=1, k1=-0.133, k2=0.265     ewfd.Ez (V/m) @ lambda=1, k1=-0.133, k2=0.316     ewfd.Ez (V/m) @ lambda=1, k1=-0.133, k2=0.367     ewfd.Ez (V/m) @ lambda=1, k1=-0.133, k2=0.418     ewfd.Ez (V/m) @ lambda=1, k1=-0.133, k2=0.469     ewfd.Ez (V/m) @ lambda=1, k1=-0.082, k2=-0.5      ewfd.Ez (V/m) @ lambda=1, k1=-0.082, k2=-0.449    ewfd.Ez (V/m) @ lambda=1, k1=-0.082, k2=-0.398    ewfd.Ez (V/m) @ lambda=1, k1=-0.082, k2=-0.347    ewfd.Ez (V/m) @ lambda=1, k1=-0.082, k2=-0.296    ewfd.Ez (V/m) @ lambda=1, k1=-0.082, k2=-0.245    ewfd.Ez (V/m) @ lambda=1, k1=-0.082, k2=-0.194    ewfd.Ez (V/m) @ lambda=1, k1=-0.082, k2=-0.143    ewfd.Ez (V/m) @ lambda=1, k1=-0.082, k2=-0.092    ewfd.Ez (V/m) @ lambda=1, k1=-0.082, k2=-0.041    ewfd.Ez (V/m) @ lambda=1, k1=-0.082, k2=0.01      ewfd.Ez (V/m) @ lambda=1, k1=-0.082, k2=0.061     ewfd.Ez (V/m) @ lambda=1, k1=-0.082, k2=0.112     ewfd.Ez (V/m) @ lambda=1, k1=-0.082, k2=0.163     ewfd.Ez (V/m) @ lambda=1, k1=-0.082, k2=0.214     ewfd.Ez (V/m) @ lambda=1, k1=-0.082, k2=0.265     ewfd.Ez (V/m) @ lambda=1, k1=-0.082, k2=0.316     ewfd.Ez (V/m) @ lambda=1, k1=-0.082, k2=0.367     ewfd.Ez (V/m) @ lambda=1, k1=-0.082, k2=0.418     ewfd.Ez (V/m) @ lambda=1, k1=-0.082, k2=0.469     ewfd.Ez (V/m) @ lambda=1, k1=-0.031, k2=-0.5      ewfd.Ez (V/m) @ lambda=1, k1=-0.031, k2=-0.449    ewfd.Ez (V/m) @ lambda=1, k1=-0.031, k2=-0.398    ewfd.Ez (V/m) @ lambda=1, k1=-0.031, k2=-0.347    ewfd.Ez (V/m) @ lambda=1, k1=-0.031, k2=-0.296    ewfd.Ez (V/m) @ lambda=1, k1=-0.031, k2=-0.245    ewfd.Ez (V/m) @ lambda=1, k1=-0.031, k2=-0.194    ewfd.Ez (V/m) @ lambda=1, k1=-0.031, k2=-0.143    ewfd.Ez (V/m) @ lambda=1, k1=-0.031, k2=-0.092    ewfd.Ez (V/m) @ lambda=1, k1=-0.031, k2=-0.041    ewfd.Ez (V/m) @ lambda=1, k1=-0.031, k2=0.01      ewfd.Ez (V/m) @ lambda=1, k1=-0.031, k2=0.061     ewfd.Ez (V/m) @ lambda=1, k1=-0.031, k2=0.112     ewfd.Ez (V/m) @ lambda=1, k1=-0.031, k2=0.163     ewfd.Ez (V/m) @ lambda=1, k1=-0.031, k2=0.214     ewfd.Ez (V/m) @ lambda=1, k1=-0.031, k2=0.265     ewfd.Ez (V/m) @ lambda=1, k1=-0.031, k2=0.316     ewfd.Ez (V/m) @ lambda=1, k1=-0.031, k2=0.367     ewfd.Ez (V/m) @ lambda=1, k1=-0.031, k2=0.418     ewfd.Ez (V/m) @ lambda=1, k1=-0.031, k2=0.469     ewfd.Ez (V/m) @ lambda=1, k1=0.02, k2=-0.5        ewfd.Ez (V/m) @ lambda=1, k1=0.02, k2=-0.449      ewfd.Ez (V/m) @ lambda=1, k1=0.02, k2=-0.398      ewfd.Ez (V/m) @ lambda=1, k1=0.02, k2=-0.347      ewfd.Ez (V/m) @ lambda=1, k1=0.02, k2=-0.296      ewfd.Ez (V/m) @ lambda=1, k1=0.02, k2=-0.245      ewfd.Ez (V/m) @ lambda=1, k1=0.02, k2=-0.194      ewfd.Ez (V/m) @ lambda=1, k1=0.02, k2=-0.143      ewfd.Ez (V/m) @ lambda=1, k1=0.02, k2=-0.092      ewfd.Ez (V/m) @ lambda=1, k1=0.02, k2=-0.041      ewfd.Ez (V/m) @ lambda=1, k1=0.02, k2=0.01        ewfd.Ez (V/m) @ lambda=1, k1=0.02, k2=0.061       ewfd.Ez (V/m) @ lambda=1, k1=0.02, k2=0.112       ewfd.Ez (V/m) @ lambda=1, k1=0.02, k2=0.163       ewfd.Ez (V/m) @ lambda=1, k1=0.02, k2=0.214       ewfd.Ez (V/m) @ lambda=1, k1=0.02, k2=0.265       ewfd.Ez (V/m) @ lambda=1, k1=0.02, k2=0.316       ewfd.Ez (V/m) @ lambda=1, k1=0.02, k2=0.367       ewfd.Ez (V/m) @ lambda=1, k1=0.02, k2=0.418       ewfd.Ez (V/m) @ lambda=1, k1=0.02, k2=0.469       ewfd.Ez (V/m) @ lambda=1, k1=0.071, k2=-0.5       ewfd.Ez (V/m) @ lambda=1, k1=0.071, k2=-0.449     ewfd.Ez (V/m) @ lambda=1, k1=0.071, k2=-0.398     ewfd.Ez (V/m) @ lambda=1, k1=0.071, k2=-0.347     ewfd.Ez (V/m) @ lambda=1, k1=0.071, k2=-0.296     ewfd.Ez (V/m) @ lambda=1, k1=0.071, k2=-0.245     ewfd.Ez (V/m) @ lambda=1, k1=0.071, k2=-0.194     ewfd.Ez (V/m) @ lambda=1, k1=0.071, k2=-0.143     ewfd.Ez (V/m) @ lambda=1, k1=0.071, k2=-0.092     ewfd.Ez (V/m) @ lambda=1, k1=0.071, k2=-0.041     ewfd.Ez (V/m) @ lambda=1, k1=0.071, k2=0.01       ewfd.Ez (V/m) @ lambda=1, k1=0.071, k2=0.061      ewfd.Ez (V/m) @ lambda=1, k1=0.071, k2=0.112      ewfd.Ez (V/m) @ lambda=1, k1=0.071, k2=0.163      ewfd.Ez (V/m) @ lambda=1, k1=0.071, k2=0.214      ewfd.Ez (V/m) @ lambda=1, k1=0.071, k2=0.265      ewfd.Ez (V/m) @ lambda=1, k1=0.071, k2=0.316      ewfd.Ez (V/m) @ lambda=1, k1=0.071, k2=0.367      ewfd.Ez (V/m) @ lambda=1, k1=0.071, k2=0.418      ewfd.Ez (V/m) @ lambda=1, k1=0.071, k2=0.469      ewfd.Ez (V/m) @ lambda=1, k1=0.122, k2=-0.5       ewfd.Ez (V/m) @ lambda=1, k1=0.122, k2=-0.449     ewfd.Ez (V/m) @ lambda=1, k1=0.122, k2=-0.398     ewfd.Ez (V/m) @ lambda=1, k1=0.122, k2=-0.347     ewfd.Ez (V/m) @ lambda=1, k1=0.122, k2=-0.296     ewfd.Ez (V/m) @ lambda=1, k1=0.122, k2=-0.245     ewfd.Ez (V/m) @ lambda=1, k1=0.122, k2=-0.194     ewfd.Ez (V/m) @ lambda=1, k1=0.122, k2=-0.143     ewfd.Ez (V/m) @ lambda=1, k1=0.122, k2=-0.092     ewfd.Ez (V/m) @ lambda=1, k1=0.122, k2=-0.041     ewfd.Ez (V/m) @ lambda=1, k1=0.122, k2=0.01       ewfd.Ez (V/m) @ lambda=1, k1=0.122, k2=0.061      ewfd.Ez (V/m) @ lambda=1, k1=0.122, k2=0.112      ewfd.Ez (V/m) @ lambda=1, k1=0.122, k2=0.163      ewfd.Ez (V/m) @ lambda=1, k1=0.122, k2=0.214      ewfd.Ez (V/m) @ lambda=1, k1=0.122, k2=0.265      ewfd.Ez (V/m) @ lambda=1, k1=0.122, k2=0.316      ewfd.Ez (V/m) @ lambda=1, k1=0.122, k2=0.367      ewfd.Ez (V/m) @ lambda=1, k1=0.122, k2=0.418      ewfd.Ez (V/m) @ lambda=1, k1=0.122, k2=0.469      ewfd.Ez (V/m) @ lambda=1, k1=0.173, k2=-0.5       ewfd.Ez (V/m) @ lambda=1, k1=0.173, k2=-0.449     ewfd.Ez (V/m) @ lambda=1, k1=0.173, k2=-0.398     ewfd.Ez (V/m) @ lambda=1, k1=0.173, k2=-0.347     ewfd.Ez (V/m) @ lambda=1, k1=0.173, k2=-0.296     ewfd.Ez (V/m) @ lambda=1, k1=0.173, k2=-0.245     ewfd.Ez (V/m) @ lambda=1, k1=0.173, k2=-0.194     ewfd.Ez (V/m) @ lambda=1, k1=0.173, k2=-0.143     ewfd.Ez (V/m) @ lambda=1, k1=0.173, k2=-0.092     ewfd.Ez (V/m) @ lambda=1, k1=0.173, k2=-0.041     ewfd.Ez (V/m) @ lambda=1, k1=0.173, k2=0.01       ewfd.Ez (V/m) @ lambda=1, k1=0.173, k2=0.061      ewfd.Ez (V/m) @ lambda=1, k1=0.173, k2=0.112      ewfd.Ez (V/m) @ lambda=1, k1=0.173, k2=0.163      ewfd.Ez (V/m) @ lambda=1, k1=0.173, k2=0.214      ewfd.Ez (V/m) @ lambda=1, k1=0.173, k2=0.265      ewfd.Ez (V/m) @ lambda=1, k1=0.173, k2=0.316      ewfd.Ez (V/m) @ lambda=1, k1=0.173, k2=0.367      ewfd.Ez (V/m) @ lambda=1, k1=0.173, k2=0.418      ewfd.Ez (V/m) @ lambda=1, k1=0.173, k2=0.469      ewfd.Ez (V/m) @ lambda=1, k1=0.224, k2=-0.5       ewfd.Ez (V/m) @ lambda=1, k1=0.224, k2=-0.449     ewfd.Ez (V/m) @ lambda=1, k1=0.224, k2=-0.398     ewfd.Ez (V/m) @ lambda=1, k1=0.224, k2=-0.347     ewfd.Ez (V/m) @ lambda=1, k1=0.224, k2=-0.296     ewfd.Ez (V/m) @ lambda=1, k1=0.224, k2=-0.245     ewfd.Ez (V/m) @ lambda=1, k1=0.224, k2=-0.194     ewfd.Ez (V/m) @ lambda=1, k1=0.224, k2=-0.143     ewfd.Ez (V/m) @ lambda=1, k1=0.224, k2=-0.092     ewfd.Ez (V/m) @ lambda=1, k1=0.224, k2=-0.041     ewfd.Ez (V/m) @ lambda=1, k1=0.224, k2=0.01       ewfd.Ez (V/m) @ lambda=1, k1=0.224, k2=0.061      ewfd.Ez (V/m) @ lambda=1, k1=0.224, k2=0.112      ewfd.Ez (V/m) @ lambda=1, k1=0.224, k2=0.163      ewfd.Ez (V/m) @ lambda=1, k1=0.224, k2=0.214      ewfd.Ez (V/m) @ lambda=1, k1=0.224, k2=0.265      ewfd.Ez (V/m) @ lambda=1, k1=0.224, k2=0.316      ewfd.Ez (V/m) @ lambda=1, k1=0.224, k2=0.367      ewfd.Ez (V/m) @ lambda=1, k1=0.224, k2=0.418      ewfd.Ez (V/m) @ lambda=1, k1=0.224, k2=0.469      ewfd.Ez (V/m) @ lambda=1, k1=0.275, k2=-0.5       ewfd.Ez (V/m) @ lambda=1, k1=0.275, k2=-0.449     ewfd.Ez (V/m) @ lambda=1, k1=0.275, k2=-0.398     ewfd.Ez (V/m) @ lambda=1, k1=0.275, k2=-0.347     ewfd.Ez (V/m) @ lambda=1, k1=0.275, k2=-0.296     ewfd.Ez (V/m) @ lambda=1, k1=0.275, k2=-0.245     ewfd.Ez (V/m) @ lambda=1, k1=0.275, k2=-0.194     ewfd.Ez (V/m) @ lambda=1, k1=0.275, k2=-0.143     ewfd.Ez (V/m) @ lambda=1, k1=0.275, k2=-0.092     ewfd.Ez (V/m) @ lambda=1, k1=0.275, k2=-0.041     ewfd.Ez (V/m) @ lambda=1, k1=0.275, k2=0.01       ewfd.Ez (V/m) @ lambda=1, k1=0.275, k2=0.061      ewfd.Ez (V/m) @ lambda=1, k1=0.275, k2=0.112      ewfd.Ez (V/m) @ lambda=1, k1=0.275, k2=0.163      ewfd.Ez (V/m) @ lambda=1, k1=0.275, k2=0.214      ewfd.Ez (V/m) @ lambda=1, k1=0.275, k2=0.265      ewfd.Ez (V/m) @ lambda=1, k1=0.275, k2=0.316      ewfd.Ez (V/m) @ lambda=1, k1=0.275, k2=0.367      ewfd.Ez (V/m) @ lambda=1, k1=0.275, k2=0.418      ewfd.Ez (V/m) @ lambda=1, k1=0.275, k2=0.469      ewfd.Ez (V/m) @ lambda=1, k1=0.326, k2=-0.5       ewfd.Ez (V/m) @ lambda=1, k1=0.326, k2=-0.449     ewfd.Ez (V/m) @ lambda=1, k1=0.326, k2=-0.398     ewfd.Ez (V/m) @ lambda=1, k1=0.326, k2=-0.347     ewfd.Ez (V/m) @ lambda=1, k1=0.326, k2=-0.296     ewfd.Ez (V/m) @ lambda=1, k1=0.326, k2=-0.245     ewfd.Ez (V/m) @ lambda=1, k1=0.326, k2=-0.194     ewfd.Ez (V/m) @ lambda=1, k1=0.326, k2=-0.143     ewfd.Ez (V/m) @ lambda=1, k1=0.326, k2=-0.092     ewfd.Ez (V/m) @ lambda=1, k1=0.326, k2=-0.041     ewfd.Ez (V/m) @ lambda=1, k1=0.326, k2=0.01       ewfd.Ez (V/m) @ lambda=1, k1=0.326, k2=0.061      ewfd.Ez (V/m) @ lambda=1, k1=0.326, k2=0.112      ewfd.Ez (V/m) @ lambda=1, k1=0.326, k2=0.163      ewfd.Ez (V/m) @ lambda=1, k1=0.326, k2=0.214      ewfd.Ez (V/m) @ lambda=1, k1=0.326, k2=0.265      ewfd.Ez (V/m) @ lambda=1, k1=0.326, k2=0.316      ewfd.Ez (V/m) @ lambda=1, k1=0.326, k2=0.367      ewfd.Ez (V/m) @ lambda=1, k1=0.326, k2=0.418      ewfd.Ez (V/m) @ lambda=1, k1=0.326, k2=0.469      ewfd.Ez (V/m) @ lambda=1, k1=0.377, k2=-0.5       ewfd.Ez (V/m) @ lambda=1, k1=0.377, k2=-0.449     ewfd.Ez (V/m) @ lambda=1, k1=0.377, k2=-0.398     ewfd.Ez (V/m) @ lambda=1, k1=0.377, k2=-0.347     ewfd.Ez (V/m) @ lambda=1, k1=0.377, k2=-0.296     ewfd.Ez (V/m) @ lambda=1, k1=0.377, k2=-0.245     ewfd.Ez (V/m) @ lambda=1, k1=0.377, k2=-0.194     ewfd.Ez (V/m) @ lambda=1, k1=0.377, k2=-0.143     ewfd.Ez (V/m) @ lambda=1, k1=0.377, k2=-0.092     ewfd.Ez (V/m) @ lambda=1, k1=0.377, k2=-0.041     ewfd.Ez (V/m) @ lambda=1, k1=0.377, k2=0.01       ewfd.Ez (V/m) @ lambda=1, k1=0.377, k2=0.061      ewfd.Ez (V/m) @ lambda=1, k1=0.377, k2=0.112      ewfd.Ez (V/m) @ lambda=1, k1=0.377, k2=0.163      ewfd.Ez (V/m) @ lambda=1, k1=0.377, k2=0.214      ewfd.Ez (V/m) @ lambda=1, k1=0.377, k2=0.265      ewfd.Ez (V/m) @ lambda=1, k1=0.377, k2=0.316      ewfd.Ez (V/m) @ lambda=1, k1=0.377, k2=0.367      ewfd.Ez (V/m) @ lambda=1, k1=0.377, k2=0.418      ewfd.Ez (V/m) @ lambda=1, k1=0.377, k2=0.469      ewfd.Ez (V/m) @ lambda=1, k1=0.428, k2=-0.5       ewfd.Ez (V/m) @ lambda=1, k1=0.428, k2=-0.449     ewfd.Ez (V/m) @ lambda=1, k1=0.428, k2=-0.398     ewfd.Ez (V/m) @ lambda=1, k1=0.428, k2=-0.347     ewfd.Ez (V/m) @ lambda=1, k1=0.428, k2=-0.296     ewfd.Ez (V/m) @ lambda=1, k1=0.428, k2=-0.245     ewfd.Ez (V/m) @ lambda=1, k1=0.428, k2=-0.194     ewfd.Ez (V/m) @ lambda=1, k1=0.428, k2=-0.143     ewfd.Ez (V/m) @ lambda=1, k1=0.428, k2=-0.092     ewfd.Ez (V/m) @ lambda=1, k1=0.428, k2=-0.041     ewfd.Ez (V/m) @ lambda=1, k1=0.428, k2=0.01       ewfd.Ez (V/m) @ lambda=1, k1=0.428, k2=0.061      ewfd.Ez (V/m) @ lambda=1, k1=0.428, k2=0.112      ewfd.Ez (V/m) @ lambda=1, k1=0.428, k2=0.163      ewfd.Ez (V/m) @ lambda=1, k1=0.428, k2=0.214      ewfd.Ez (V/m) @ lambda=1, k1=0.428, k2=0.265      ewfd.Ez (V/m) @ lambda=1, k1=0.428, k2=0.316      ewfd.Ez (V/m) @ lambda=1, k1=0.428, k2=0.367      ewfd.Ez (V/m) @ lambda=1, k1=0.428, k2=0.418      ewfd.Ez (V/m) @ lambda=1, k1=0.428, k2=0.469      ewfd.Ez (V/m) @ lambda=1, k1=0.479, k2=-0.5       ewfd.Ez (V/m) @ lambda=1, k1=0.479, k2=-0.449     ewfd.Ez (V/m) @ lambda=1, k1=0.479, k2=-0.398     ewfd.Ez (V/m) @ lambda=1, k1=0.479, k2=-0.347     ewfd.Ez (V/m) @ lambda=1, k1=0.479, k2=-0.296     ewfd.Ez (V/m) @ lambda=1, k1=0.479, k2=-0.245     ewfd.Ez (V/m) @ lambda=1, k1=0.479, k2=-0.194     ewfd.Ez (V/m) @ lambda=1, k1=0.479, k2=-0.143     ewfd.Ez (V/m) @ lambda=1, k1=0.479, k2=-0.092     ewfd.Ez (V/m) @ lambda=1, k1=0.479, k2=-0.041     ewfd.Ez (V/m) @ lambda=1, k1=0.479, k2=0.01       ewfd.Ez (V/m) @ lambda=1, k1=0.479, k2=0.061      ewfd.Ez (V/m) @ lambda=1, k1=0.479, k2=0.112      ewfd.Ez (V/m) @ lambda=1, k1=0.479, k2=0.163      ewfd.Ez (V/m) @ lambda=1, k1=0.479, k2=0.214      ewfd.Ez (V/m) @ lambda=1, k1=0.479, k2=0.265      ewfd.Ez (V/m) @ lambda=1, k1=0.479, k2=0.316      ewfd.Ez (V/m) @ lambda=1, k1=0.479, k2=0.367      ewfd.Ez (V/m) @ lambda=1, k1=0.479, k2=0.418      ewfd.Ez (V/m) @ lambda=1, k1=0.479, k2=0.469