% Model:              c4扩张收缩.mph
% Version:            COMSOL 5.4.0.225
% Date:               Apr 24 2021, 13:59
% Dimension:          2
% Nodes:              15
% Expressions:        400
% Description:        电场，z 分量
% Length unit:        m
% X                       Y                        ewfd.Ez (V/m) @ lambda=1, k1=-0.5, k2=-0.5        ewfd.Ez (V/m) @ lambda=1, k1=-0.5, k2=-0.449      ewfd.Ez (V/m) @ lambda=1, k1=-0.5, k2=-0.398      ewfd.Ez (V/m) @ lambda=1, k1=-0.5, k2=-0.347      ewfd.Ez (V/m) @ lambda=1, k1=-0.5, k2=-0.296      ewfd.Ez (V/m) @ lambda=1, k1=-0.5, k2=-0.245      ewfd.Ez (V/m) @ lambda=1, k1=-0.5, k2=-0.194      ewfd.Ez (V/m) @ lambda=1, k1=-0.5, k2=-0.143      ewfd.Ez (V/m) @ lambda=1, k1=-0.5, k2=-0.092      ewfd.Ez (V/m) @ lambda=1, k1=-0.5, k2=-0.041      ewfd.Ez (V/m) @ lambda=1, k1=-0.5, k2=0.01        ewfd.Ez (V/m) @ lambda=1, k1=-0.5, k2=0.061       ewfd.Ez (V/m) @ lambda=1, k1=-0.5, k2=0.112       ewfd.Ez (V/m) @ lambda=1, k1=-0.5, k2=0.163       ewfd.Ez (V/m) @ lambda=1, k1=-0.5, k2=0.214       ewfd.Ez (V/m) @ lambda=1, k1=-0.5, k2=0.265       ewfd.Ez (V/m) @ lambda=1, k1=-0.5, k2=0.316       ewfd.Ez (V/m) @ lambda=1, k1=-0.5, k2=0.367       ewfd.Ez (V/m) @ lambda=1, k1=-0.5, k2=0.418       ewfd.Ez (V/m) @ lambda=1, k1=-0.5, k2=0.469       ewfd.Ez (V/m) @ lambda=1, k1=-0.449, k2=-0.5      ewfd.Ez (V/m) @ lambda=1, k1=-0.449, k2=-0.449    ewfd.Ez (V/m) @ lambda=1, k1=-0.449, k2=-0.398    ewfd.Ez (V/m) @ lambda=1, k1=-0.449, k2=-0.347    ewfd.Ez (V/m) @ lambda=1, k1=-0.449, k2=-0.296    ewfd.Ez (V/m) @ lambda=1, k1=-0.449, k2=-0.245    ewfd.Ez (V/m) @ lambda=1, k1=-0.449, k2=-0.194    ewfd.Ez (V/m) @ lambda=1, k1=-0.449, k2=-0.143    ewfd.Ez (V/m) @ lambda=1, k1=-0.449, k2=-0.092    ewfd.Ez (V/m) @ lambda=1, k1=-0.449, k2=-0.041    ewfd.Ez (V/m) @ lambda=1, k1=-0.449, k2=0.01      ewfd.Ez (V/m) @ lambda=1, k1=-0.449, k2=0.061     ewfd.Ez (V/m) @ lambda=1, k1=-0.449, k2=0.112     ewfd.Ez (V/m) @ lambda=1, k1=-0.449, k2=0.163     ewfd.Ez (V/m) @ lambda=1, k1=-0.449, k2=0.214     ewfd.Ez (V/m) @ lambda=1, k1=-0.449, k2=0.265     ewfd.Ez (V/m) @ lambda=1, k1=-0.449, k2=0.316     ewfd.Ez (V/m) @ lambda=1, k1=-0.449, k2=0.367     ewfd.Ez (V/m) @ lambda=1, k1=-0.449, k2=0.418     ewfd.Ez (V/m) @ lambda=1, k1=-0.449, k2=0.469     ewfd.Ez (V/m) @ lambda=1, k1=-0.398, k2=-0.5      ewfd.Ez (V/m) @ lambda=1, k1=-0.398, k2=-0.449    ewfd.Ez (V/m) @ lambda=1, k1=-0.398, k2=-0.398    ewfd.Ez (V/m) @ lambda=1, k1=-0.398, k2=-0.347    ewfd.Ez (V/m) @ lambda=1, k1=-0.398, k2=-0.296    ewfd.Ez (V/m) @ lambda=1, k1=-0.398, k2=-0.245    ewfd.Ez (V/m) @ lambda=1, k1=-0.398, k2=-0.194    ewfd.Ez (V/m) @ lambda=1, k1=-0.398, k2=-0.143    ewfd.Ez (V/m) @ lambda=1, k1=-0.398, k2=-0.092    ewfd.Ez (V/m) @ lambda=1, k1=-0.398, k2=-0.041    ewfd.Ez (V/m) @ lambda=1, k1=-0.398, k2=0.01      ewfd.Ez (V/m) @ lambda=1, k1=-0.398, k2=0.061     ewfd.Ez (V/m) @ lambda=1, k1=-0.398, k2=0.112     ewfd.Ez (V/m) @ lambda=1, k1=-0.398, k2=0.163     ewfd.Ez (V/m) @ lambda=1, k1=-0.398, k2=0.214     ewfd.Ez (V/m) @ lambda=1, k1=-0.398, k2=0.265     ewfd.Ez (V/m) @ lambda=1, k1=-0.398, k2=0.316     ewfd.Ez (V/m) @ lambda=1, k1=-0.398, k2=0.367     ewfd.Ez (V/m) @ lambda=1, k1=-0.398, k2=0.418     ewfd.Ez (V/m) @ lambda=1, k1=-0.398, k2=0.469     ewfd.Ez (V/m) @ lambda=1, k1=-0.347, k2=-0.5      ewfd.Ez (V/m) @ lambda=1, k1=-0.347, k2=-0.449    ewfd.Ez (V/m) @ lambda=1, k1=-0.347, k2=-0.398    ewfd.Ez (V/m) @ lambda=1, k1=-0.347, k2=-0.347    ewfd.Ez (V/m) @ lambda=1, k1=-0.347, k2=-0.296    ewfd.Ez (V/m) @ lambda=1, k1=-0.347, k2=-0.245    ewfd.Ez (V/m) @ lambda=1, k1=-0.347, k2=-0.194    ewfd.Ez (V/m) @ lambda=1, k1=-0.347, k2=-0.143    ewfd.Ez (V/m) @ lambda=1, k1=-0.347, k2=-0.092    ewfd.Ez (V/m) @ lambda=1, k1=-0.347, k2=-0.041    ewfd.Ez (V/m) @ lambda=1, k1=-0.347, k2=0.01      ewfd.Ez (V/m) @ lambda=1, k1=-0.347, k2=0.061     ewfd.Ez (V/m) @ lambda=1, k1=-0.347, k2=0.112     ewfd.Ez (V/m) @ lambda=1, k1=-0.347, k2=0.163     ewfd.Ez (V/m) @ lambda=1, k1=-0.347, k2=0.214     ewfd.Ez (V/m) @ lambda=1, k1=-0.347, k2=0.265     ewfd.Ez (V/m) @ lambda=1, k1=-0.347, k2=0.316     ewfd.Ez (V/m) @ lambda=1, k1=-0.347, k2=0.367     ewfd.Ez (V/m) @ lambda=1, k1=-0.347, k2=0.418     ewfd.Ez (V/m) @ lambda=1, k1=-0.347, k2=0.469     ewfd.Ez (V/m) @ lambda=1, k1=-0.296, k2=-0.5      ewfd.Ez (V/m) @ lambda=1, k1=-0.296, k2=-0.449    ewfd.Ez (V/m) @ lambda=1, k1=-0.296, k2=-0.398    ewfd.Ez (V/m) @ lambda=1, k1=-0.296, k2=-0.347    ewfd.Ez (V/m) @ lambda=1, k1=-0.296, k2=-0.296    ewfd.Ez (V/m) @ lambda=1, k1=-0.296, k2=-0.245    ewfd.Ez (V/m) @ lambda=1, k1=-0.296, k2=-0.194    ewfd.Ez (V/m) @ lambda=1, k1=-0.296, k2=-0.143    ewfd.Ez (V/m) @ lambda=1, k1=-0.296, k2=-0.092    ewfd.Ez (V/m) @ lambda=1, k1=-0.296, k2=-0.041    ewfd.Ez (V/m) @ lambda=1, k1=-0.296, k2=0.01      ewfd.Ez (V/m) @ lambda=1, k1=-0.296, k2=0.061     ewfd.Ez (V/m) @ lambda=1, k1=-0.296, k2=0.112     ewfd.Ez (V/m) @ lambda=1, k1=-0.296, k2=0.163     ewfd.Ez (V/m) @ lambda=1, k1=-0.296, k2=0.214     ewfd.Ez (V/m) @ lambda=1, k1=-0.296, k2=0.265     ewfd.Ez (V/m) @ lambda=1, k1=-0.296, k2=0.316     ewfd.Ez (V/m) @ lambda=1, k1=-0.296, k2=0.367     ewfd.Ez (V/m) @ lambda=1, k1=-0.296, k2=0.418     ewfd.Ez (V/m) @ lambda=1, k1=-0.296, k2=0.469     ewfd.Ez (V/m) @ lambda=1, k1=-0.245, k2=-0.5      ewfd.Ez (V/m) @ lambda=1, k1=-0.245, k2=-0.449    ewfd.Ez (V/m) @ lambda=1, k1=-0.245, k2=-0.398    ewfd.Ez (V/m) @ lambda=1, k1=-0.245, k2=-0.347    ewfd.Ez (V/m) @ lambda=1, k1=-0.245, k2=-0.296    ewfd.Ez (V/m) @ lambda=1, k1=-0.245, k2=-0.245    ewfd.Ez (V/m) @ lambda=1, k1=-0.245, k2=-0.194    ewfd.Ez (V/m) @ lambda=1, k1=-0.245, k2=-0.143    ewfd.Ez (V/m) @ lambda=1, k1=-0.245, k2=-0.092    ewfd.Ez (V/m) @ lambda=1, k1=-0.245, k2=-0.041    ewfd.Ez (V/m) @ lambda=1, k1=-0.245, k2=0.01      ewfd.Ez (V/m) @ lambda=1, k1=-0.245, k2=0.061     ewfd.Ez (V/m) @ lambda=1, k1=-0.245, k2=0.112     ewfd.Ez (V/m) @ lambda=1, k1=-0.245, k2=0.163     ewfd.Ez (V/m) @ lambda=1, k1=-0.245, k2=0.214     ewfd.Ez (V/m) @ lambda=1, k1=-0.245, k2=0.265     ewfd.Ez (V/m) @ lambda=1, k1=-0.245, k2=0.316     ewfd.Ez (V/m) @ lambda=1, k1=-0.245, k2=0.367     ewfd.Ez (V/m) @ lambda=1, k1=-0.245, k2=0.418     ewfd.Ez (V/m) @ lambda=1, k1=-0.245, k2=0.469     ewfd.Ez (V/m) @ lambda=1, k1=-0.194, k2=-0.5      ewfd.Ez (V/m) @ lambda=1, k1=-0.194, k2=-0.449    ewfd.Ez (V/m) @ lambda=1, k1=-0.194, k2=-0.398    ewfd.Ez (V/m) @ lambda=1, k1=-0.194, k2=-0.347    ewfd.Ez (V/m) @ lambda=1, k1=-0.194, k2=-0.296    ewfd.Ez (V/m) @ lambda=1, k1=-0.194, k2=-0.245    ewfd.Ez (V/m) @ lambda=1, k1=-0.194, k2=-0.194    ewfd.Ez (V/m) @ lambda=1, k1=-0.194, k2=-0.143    ewfd.Ez (V/m) @ lambda=1, k1=-0.194, k2=-0.092    ewfd.Ez (V/m) @ lambda=1, k1=-0.194, k2=-0.041    ewfd.Ez (V/m) @ lambda=1, k1=-0.194, k2=0.01      ewfd.Ez (V/m) @ lambda=1, k1=-0.194, k2=0.061     ewfd.Ez (V/m) @ lambda=1, k1=-0.194, k2=0.112     ewfd.Ez (V/m) @ lambda=1, k1=-0.194, k2=0.163     ewfd.Ez (V/m) @ lambda=1, k1=-0.194, k2=0.214     ewfd.Ez (V/m) @ lambda=1, k1=-0.194, k2=0.265     ewfd.Ez (V/m) @ lambda=1, k1=-0.194, k2=0.316     ewfd.Ez (V/m) @ lambda=1, k1=-0.194, k2=0.367     ewfd.Ez (V/m) @ lambda=1, k1=-0.194, k2=0.418     ewfd.Ez (V/m) @ lambda=1, k1=-0.194, k2=0.469     ewfd.Ez (V/m) @ lambda=1, k1=-0.143, k2=-0.5      ewfd.Ez (V/m) @ lambda=1, k1=-0.143, k2=-0.449    ewfd.Ez (V/m) @ lambda=1, k1=-0.143, k2=-0.398    ewfd.Ez (V/m) @ lambda=1, k1=-0.143, k2=-0.347    ewfd.Ez (V/m) @ lambda=1, k1=-0.143, k2=-0.296    ewfd.Ez (V/m) @ lambda=1, k1=-0.143, k2=-0.245    ewfd.Ez (V/m) @ lambda=1, k1=-0.143, k2=-0.194    ewfd.Ez (V/m) @ lambda=1, k1=-0.143, k2=-0.143    ewfd.Ez (V/m) @ lambda=1, k1=-0.143, k2=-0.092    ewfd.Ez (V/m) @ lambda=1, k1=-0.143, k2=-0.041    ewfd.Ez (V/m) @ lambda=1, k1=-0.143, k2=0.01      ewfd.Ez (V/m) @ lambda=1, k1=-0.143, k2=0.061     ewfd.Ez (V/m) @ lambda=1, k1=-0.143, k2=0.112     ewfd.Ez (V/m) @ lambda=1, k1=-0.143, k2=0.163     ewfd.Ez (V/m) @ lambda=1, k1=-0.143, k2=0.214     ewfd.Ez (V/m) @ lambda=1, k1=-0.143, k2=0.265     ewfd.Ez (V/m) @ lambda=1, k1=-0.143, k2=0.316     ewfd.Ez (V/m) @ lambda=1, k1=-0.143, k2=0.367     ewfd.Ez (V/m) @ lambda=1, k1=-0.143, k2=0.418     ewfd.Ez (V/m) @ lambda=1, k1=-0.143, k2=0.469     ewfd.Ez (V/m) @ lambda=1, k1=-0.092, k2=-0.5      ewfd.Ez (V/m) @ lambda=1, k1=-0.092, k2=-0.449    ewfd.Ez (V/m) @ lambda=1, k1=-0.092, k2=-0.398    ewfd.Ez (V/m) @ lambda=1, k1=-0.092, k2=-0.347    ewfd.Ez (V/m) @ lambda=1, k1=-0.092, k2=-0.296    ewfd.Ez (V/m) @ lambda=1, k1=-0.092, k2=-0.245    ewfd.Ez (V/m) @ lambda=1, k1=-0.092, k2=-0.194    ewfd.Ez (V/m) @ lambda=1, k1=-0.092, k2=-0.143    ewfd.Ez (V/m) @ lambda=1, k1=-0.092, k2=-0.092    ewfd.Ez (V/m) @ lambda=1, k1=-0.092, k2=-0.041    ewfd.Ez (V/m) @ lambda=1, k1=-0.092, k2=0.01      ewfd.Ez (V/m) @ lambda=1, k1=-0.092, k2=0.061     ewfd.Ez (V/m) @ lambda=1, k1=-0.092, k2=0.112     ewfd.Ez (V/m) @ lambda=1, k1=-0.092, k2=0.163     ewfd.Ez (V/m) @ lambda=1, k1=-0.092, k2=0.214     ewfd.Ez (V/m) @ lambda=1, k1=-0.092, k2=0.265     ewfd.Ez (V/m) @ lambda=1, k1=-0.092, k2=0.316     ewfd.Ez (V/m) @ lambda=1, k1=-0.092, k2=0.367     ewfd.Ez (V/m) @ lambda=1, k1=-0.092, k2=0.418     ewfd.Ez (V/m) @ lambda=1, k1=-0.092, k2=0.469     ewfd.Ez (V/m) @ lambda=1, k1=-0.041, k2=-0.5      ewfd.Ez (V/m) @ lambda=1, k1=-0.041, k2=-0.449    ewfd.Ez (V/m) @ lambda=1, k1=-0.041, k2=-0.398    ewfd.Ez (V/m) @ lambda=1, k1=-0.041, k2=-0.347    ewfd.Ez (V/m) @ lambda=1, k1=-0.041, k2=-0.296    ewfd.Ez (V/m) @ lambda=1, k1=-0.041, k2=-0.245    ewfd.Ez (V/m) @ lambda=1, k1=-0.041, k2=-0.194    ewfd.Ez (V/m) @ lambda=1, k1=-0.041, k2=-0.143    ewfd.Ez (V/m) @ lambda=1, k1=-0.041, k2=-0.092    ewfd.Ez (V/m) @ lambda=1, k1=-0.041, k2=-0.041    ewfd.Ez (V/m) @ lambda=1, k1=-0.041, k2=0.01      ewfd.Ez (V/m) @ lambda=1, k1=-0.041, k2=0.061     ewfd.Ez (V/m) @ lambda=1, k1=-0.041, k2=0.112     ewfd.Ez (V/m) @ lambda=1, k1=-0.041, k2=0.163     ewfd.Ez (V/m) @ lambda=1, k1=-0.041, k2=0.214     ewfd.Ez (V/m) @ lambda=1, k1=-0.041, k2=0.265     ewfd.Ez (V/m) @ lambda=1, k1=-0.041, k2=0.316     ewfd.Ez (V/m) @ lambda=1, k1=-0.041, k2=0.367     ewfd.Ez (V/m) @ lambda=1, k1=-0.041, k2=0.418     ewfd.Ez (V/m) @ lambda=1, k1=-0.041, k2=0.469     ewfd.Ez (V/m) @ lambda=1, k1=0.01, k2=-0.5        ewfd.Ez (V/m) @ lambda=1, k1=0.01, k2=-0.449      ewfd.Ez (V/m) @ lambda=1, k1=0.01, k2=-0.398      ewfd.Ez (V/m) @ lambda=1, k1=0.01, k2=-0.347      ewfd.Ez (V/m) @ lambda=1, k1=0.01, k2=-0.296      ewfd.Ez (V/m) @ lambda=1, k1=0.01, k2=-0.245      ewfd.Ez (V/m) @ lambda=1, k1=0.01, k2=-0.194      ewfd.Ez (V/m) @ lambda=1, k1=0.01, k2=-0.143      ewfd.Ez (V/m) @ lambda=1, k1=0.01, k2=-0.092      ewfd.Ez (V/m) @ lambda=1, k1=0.01, k2=-0.041      ewfd.Ez (V/m) @ lambda=1, k1=0.01, k2=0.01        ewfd.Ez (V/m) @ lambda=1, k1=0.01, k2=0.061       ewfd.Ez (V/m) @ lambda=1, k1=0.01, k2=0.112       ewfd.Ez (V/m) @ lambda=1, k1=0.01, k2=0.163       ewfd.Ez (V/m) @ lambda=1, k1=0.01, k2=0.214       ewfd.Ez (V/m) @ lambda=1, k1=0.01, k2=0.265       ewfd.Ez (V/m) @ lambda=1, k1=0.01, k2=0.316       ewfd.Ez (V/m) @ lambda=1, k1=0.01, k2=0.367       ewfd.Ez (V/m) @ lambda=1, k1=0.01, k2=0.418       ewfd.Ez (V/m) @ lambda=1, k1=0.01, k2=0.469       ewfd.Ez (V/m) @ lambda=1, k1=0.061, k2=-0.5       ewfd.Ez (V/m) @ lambda=1, k1=0.061, k2=-0.449     ewfd.Ez (V/m) @ lambda=1, k1=0.061, k2=-0.398     ewfd.Ez (V/m) @ lambda=1, k1=0.061, k2=-0.347     ewfd.Ez (V/m) @ lambda=1, k1=0.061, k2=-0.296     ewfd.Ez (V/m) @ lambda=1, k1=0.061, k2=-0.245     ewfd.Ez (V/m) @ lambda=1, k1=0.061, k2=-0.194     ewfd.Ez (V/m) @ lambda=1, k1=0.061, k2=-0.143     ewfd.Ez (V/m) @ lambda=1, k1=0.061, k2=-0.092     ewfd.Ez (V/m) @ lambda=1, k1=0.061, k2=-0.041     ewfd.Ez (V/m) @ lambda=1, k1=0.061, k2=0.01       ewfd.Ez (V/m) @ lambda=1, k1=0.061, k2=0.061      ewfd.Ez (V/m) @ lambda=1, k1=0.061, k2=0.112      ewfd.Ez (V/m) @ lambda=1, k1=0.061, k2=0.163      ewfd.Ez (V/m) @ lambda=1, k1=0.061, k2=0.214      ewfd.Ez (V/m) @ lambda=1, k1=0.061, k2=0.265      ewfd.Ez (V/m) @ lambda=1, k1=0.061, k2=0.316      ewfd.Ez (V/m) @ lambda=1, k1=0.061, k2=0.367      ewfd.Ez (V/m) @ lambda=1, k1=0.061, k2=0.418      ewfd.Ez (V/m) @ lambda=1, k1=0.061, k2=0.469      ewfd.Ez (V/m) @ lambda=1, k1=0.112, k2=-0.5       ewfd.Ez (V/m) @ lambda=1, k1=0.112, k2=-0.449     ewfd.Ez (V/m) @ lambda=1, k1=0.112, k2=-0.398     ewfd.Ez (V/m) @ lambda=1, k1=0.112, k2=-0.347     ewfd.Ez (V/m) @ lambda=1, k1=0.112, k2=-0.296     ewfd.Ez (V/m) @ lambda=1, k1=0.112, k2=-0.245     ewfd.Ez (V/m) @ lambda=1, k1=0.112, k2=-0.194     ewfd.Ez (V/m) @ lambda=1, k1=0.112, k2=-0.143     ewfd.Ez (V/m) @ lambda=1, k1=0.112, k2=-0.092     ewfd.Ez (V/m) @ lambda=1, k1=0.112, k2=-0.041     ewfd.Ez (V/m) @ lambda=1, k1=0.112, k2=0.01       ewfd.Ez (V/m) @ lambda=1, k1=0.112, k2=0.061      ewfd.Ez (V/m) @ lambda=1, k1=0.112, k2=0.112      ewfd.Ez (V/m) @ lambda=1, k1=0.112, k2=0.163      ewfd.Ez (V/m) @ lambda=1, k1=0.112, k2=0.214      ewfd.Ez (V/m) @ lambda=1, k1=0.112, k2=0.265      ewfd.Ez (V/m) @ lambda=1, k1=0.112, k2=0.316      ewfd.Ez (V/m) @ lambda=1, k1=0.112, k2=0.367      ewfd.Ez (V/m) @ lambda=1, k1=0.112, k2=0.418      ewfd.Ez (V/m) @ lambda=1, k1=0.112, k2=0.469      ewfd.Ez (V/m) @ lambda=1, k1=0.163, k2=-0.5       ewfd.Ez (V/m) @ lambda=1, k1=0.163, k2=-0.449     ewfd.Ez (V/m) @ lambda=1, k1=0.163, k2=-0.398     ewfd.Ez (V/m) @ lambda=1, k1=0.163, k2=-0.347     ewfd.Ez (V/m) @ lambda=1, k1=0.163, k2=-0.296     ewfd.Ez (V/m) @ lambda=1, k1=0.163, k2=-0.245     ewfd.Ez (V/m) @ lambda=1, k1=0.163, k2=-0.194     ewfd.Ez (V/m) @ lambda=1, k1=0.163, k2=-0.143     ewfd.Ez (V/m) @ lambda=1, k1=0.163, k2=-0.092     ewfd.Ez (V/m) @ lambda=1, k1=0.163, k2=-0.041     ewfd.Ez (V/m) @ lambda=1, k1=0.163, k2=0.01       ewfd.Ez (V/m) @ lambda=1, k1=0.163, k2=0.061      ewfd.Ez (V/m) @ lambda=1, k1=0.163, k2=0.112      ewfd.Ez (V/m) @ lambda=1, k1=0.163, k2=0.163      ewfd.Ez (V/m) @ lambda=1, k1=0.163, k2=0.214      ewfd.Ez (V/m) @ lambda=1, k1=0.163, k2=0.265      ewfd.Ez (V/m) @ lambda=1, k1=0.163, k2=0.316      ewfd.Ez (V/m) @ lambda=1, k1=0.163, k2=0.367      ewfd.Ez (V/m) @ lambda=1, k1=0.163, k2=0.418      ewfd.Ez (V/m) @ lambda=1, k1=0.163, k2=0.469      ewfd.Ez (V/m) @ lambda=1, k1=0.214, k2=-0.5       ewfd.Ez (V/m) @ lambda=1, k1=0.214, k2=-0.449     ewfd.Ez (V/m) @ lambda=1, k1=0.214, k2=-0.398     ewfd.Ez (V/m) @ lambda=1, k1=0.214, k2=-0.347     ewfd.Ez (V/m) @ lambda=1, k1=0.214, k2=-0.296     ewfd.Ez (V/m) @ lambda=1, k1=0.214, k2=-0.245     ewfd.Ez (V/m) @ lambda=1, k1=0.214, k2=-0.194     ewfd.Ez (V/m) @ lambda=1, k1=0.214, k2=-0.143     ewfd.Ez (V/m) @ lambda=1, k1=0.214, k2=-0.092     ewfd.Ez (V/m) @ lambda=1, k1=0.214, k2=-0.041     ewfd.Ez (V/m) @ lambda=1, k1=0.214, k2=0.01       ewfd.Ez (V/m) @ lambda=1, k1=0.214, k2=0.061      ewfd.Ez (V/m) @ lambda=1, k1=0.214, k2=0.112      ewfd.Ez (V/m) @ lambda=1, k1=0.214, k2=0.163      ewfd.Ez (V/m) @ lambda=1, k1=0.214, k2=0.214      ewfd.Ez (V/m) @ lambda=1, k1=0.214, k2=0.265      ewfd.Ez (V/m) @ lambda=1, k1=0.214, k2=0.316      ewfd.Ez (V/m) @ lambda=1, k1=0.214, k2=0.367      ewfd.Ez (V/m) @ lambda=1, k1=0.214, k2=0.418      ewfd.Ez (V/m) @ lambda=1, k1=0.214, k2=0.469      ewfd.Ez (V/m) @ lambda=1, k1=0.265, k2=-0.5       ewfd.Ez (V/m) @ lambda=1, k1=0.265, k2=-0.449     ewfd.Ez (V/m) @ lambda=1, k1=0.265, k2=-0.398     ewfd.Ez (V/m) @ lambda=1, k1=0.265, k2=-0.347     ewfd.Ez (V/m) @ lambda=1, k1=0.265, k2=-0.296     ewfd.Ez (V/m) @ lambda=1, k1=0.265, k2=-0.245     ewfd.Ez (V/m) @ lambda=1, k1=0.265, k2=-0.194     ewfd.Ez (V/m) @ lambda=1, k1=0.265, k2=-0.143     ewfd.Ez (V/m) @ lambda=1, k1=0.265, k2=-0.092     ewfd.Ez (V/m) @ lambda=1, k1=0.265, k2=-0.041     ewfd.Ez (V/m) @ lambda=1, k1=0.265, k2=0.01       ewfd.Ez (V/m) @ lambda=1, k1=0.265, k2=0.061      ewfd.Ez (V/m) @ lambda=1, k1=0.265, k2=0.112      ewfd.Ez (V/m) @ lambda=1, k1=0.265, k2=0.163      ewfd.Ez (V/m) @ lambda=1, k1=0.265, k2=0.214      ewfd.Ez (V/m) @ lambda=1, k1=0.265, k2=0.265      ewfd.Ez (V/m) @ lambda=1, k1=0.265, k2=0.316      ewfd.Ez (V/m) @ lambda=1, k1=0.265, k2=0.367      ewfd.Ez (V/m) @ lambda=1, k1=0.265, k2=0.418      ewfd.Ez (V/m) @ lambda=1, k1=0.265, k2=0.469      ewfd.Ez (V/m) @ lambda=1, k1=0.316, k2=-0.5       ewfd.Ez (V/m) @ lambda=1, k1=0.316, k2=-0.449     ewfd.Ez (V/m) @ lambda=1, k1=0.316, k2=-0.398     ewfd.Ez (V/m) @ lambda=1, k1=0.316, k2=-0.347     ewfd.Ez (V/m) @ lambda=1, k1=0.316, k2=-0.296     ewfd.Ez (V/m) @ lambda=1, k1=0.316, k2=-0.245     ewfd.Ez (V/m) @ lambda=1, k1=0.316, k2=-0.194     ewfd.Ez (V/m) @ lambda=1, k1=0.316, k2=-0.143     ewfd.Ez (V/m) @ lambda=1, k1=0.316, k2=-0.092     ewfd.Ez (V/m) @ lambda=1, k1=0.316, k2=-0.041     ewfd.Ez (V/m) @ lambda=1, k1=0.316, k2=0.01       ewfd.Ez (V/m) @ lambda=1, k1=0.316, k2=0.061      ewfd.Ez (V/m) @ lambda=1, k1=0.316, k2=0.112      ewfd.Ez (V/m) @ lambda=1, k1=0.316, k2=0.163      ewfd.Ez (V/m) @ lambda=1, k1=0.316, k2=0.214      ewfd.Ez (V/m) @ lambda=1, k1=0.316, k2=0.265      ewfd.Ez (V/m) @ lambda=1, k1=0.316, k2=0.316      ewfd.Ez (V/m) @ lambda=1, k1=0.316, k2=0.367      ewfd.Ez (V/m) @ lambda=1, k1=0.316, k2=0.418      ewfd.Ez (V/m) @ lambda=1, k1=0.316, k2=0.469      ewfd.Ez (V/m) @ lambda=1, k1=0.367, k2=-0.5       ewfd.Ez (V/m) @ lambda=1, k1=0.367, k2=-0.449     ewfd.Ez (V/m) @ lambda=1, k1=0.367, k2=-0.398     ewfd.Ez (V/m) @ lambda=1, k1=0.367, k2=-0.347     ewfd.Ez (V/m) @ lambda=1, k1=0.367, k2=-0.296     ewfd.Ez (V/m) @ lambda=1, k1=0.367, k2=-0.245     ewfd.Ez (V/m) @ lambda=1, k1=0.367, k2=-0.194     ewfd.Ez (V/m) @ lambda=1, k1=0.367, k2=-0.143     ewfd.Ez (V/m) @ lambda=1, k1=0.367, k2=-0.092     ewfd.Ez (V/m) @ lambda=1, k1=0.367, k2=-0.041     ewfd.Ez (V/m) @ lambda=1, k1=0.367, k2=0.01       ewfd.Ez (V/m) @ lambda=1, k1=0.367, k2=0.061      ewfd.Ez (V/m) @ lambda=1, k1=0.367, k2=0.112      ewfd.Ez (V/m) @ lambda=1, k1=0.367, k2=0.163      ewfd.Ez (V/m) @ lambda=1, k1=0.367, k2=0.214      ewfd.Ez (V/m) @ lambda=1, k1=0.367, k2=0.265      ewfd.Ez (V/m) @ lambda=1, k1=0.367, k2=0.316      ewfd.Ez (V/m) @ lambda=1, k1=0.367, k2=0.367      ewfd.Ez (V/m) @ lambda=1, k1=0.367, k2=0.418      ewfd.Ez (V/m) @ lambda=1, k1=0.367, k2=0.469      ewfd.Ez (V/m) @ lambda=1, k1=0.418, k2=-0.5       ewfd.Ez (V/m) @ lambda=1, k1=0.418, k2=-0.449     ewfd.Ez (V/m) @ lambda=1, k1=0.418, k2=-0.398     ewfd.Ez (V/m) @ lambda=1, k1=0.418, k2=-0.347     ewfd.Ez (V/m) @ lambda=1, k1=0.418, k2=-0.296     ewfd.Ez (V/m) @ lambda=1, k1=0.418, k2=-0.245     ewfd.Ez (V/m) @ lambda=1, k1=0.418, k2=-0.194     ewfd.Ez (V/m) @ lambda=1, k1=0.418, k2=-0.143     ewfd.Ez (V/m) @ lambda=1, k1=0.418, k2=-0.092     ewfd.Ez (V/m) @ lambda=1, k1=0.418, k2=-0.041     ewfd.Ez (V/m) @ lambda=1, k1=0.418, k2=0.01       ewfd.Ez (V/m) @ lambda=1, k1=0.418, k2=0.061      ewfd.Ez (V/m) @ lambda=1, k1=0.418, k2=0.112      ewfd.Ez (V/m) @ lambda=1, k1=0.418, k2=0.163      ewfd.Ez (V/m) @ lambda=1, k1=0.418, k2=0.214      ewfd.Ez (V/m) @ lambda=1, k1=0.418, k2=0.265      ewfd.Ez (V/m) @ lambda=1, k1=0.418, k2=0.316      ewfd.Ez (V/m) @ lambda=1, k1=0.418, k2=0.367      ewfd.Ez (V/m) @ lambda=1, k1=0.418, k2=0.418      ewfd.Ez (V/m) @ lambda=1, k1=0.418, k2=0.469      ewfd.Ez (V/m) @ lambda=1, k1=0.469, k2=-0.5       ewfd.Ez (V/m) @ lambda=1, k1=0.469, k2=-0.449     ewfd.Ez (V/m) @ lambda=1, k1=0.469, k2=-0.398     ewfd.Ez (V/m) @ lambda=1, k1=0.469, k2=-0.347     ewfd.Ez (V/m) @ lambda=1, k1=0.469, k2=-0.296     ewfd.Ez (V/m) @ lambda=1, k1=0.469, k2=-0.245     ewfd.Ez (V/m) @ lambda=1, k1=0.469, k2=-0.194     ewfd.Ez (V/m) @ lambda=1, k1=0.469, k2=-0.143     ewfd.Ez (V/m) @ lambda=1, k1=0.469, k2=-0.092     ewfd.Ez (V/m) @ lambda=1, k1=0.469, k2=-0.041     ewfd.Ez (V/m) @ lambda=1, k1=0.469, k2=0.01       ewfd.Ez (V/m) @ lambda=1, k1=0.469, k2=0.061      ewfd.Ez (V/m) @ lambda=1, k1=0.469, k2=0.112      ewfd.Ez (V/m) @ lambda=1, k1=0.469, k2=0.163      ewfd.Ez (V/m) @ lambda=1, k1=0.469, k2=0.214      ewfd.Ez (V/m) @ lambda=1, k1=0.469, k2=0.265      ewfd.Ez (V/m) @ lambda=1, k1=0.469, k2=0.316      ewfd.Ez (V/m) @ lambda=1, k1=0.469, k2=0.367      ewfd.Ez (V/m) @ lambda=1, k1=0.469, k2=0.418      ewfd.Ez (V/m) @ lambda=1, k1=0.469, k2=0.469